[Molden Format]
[Title]
 Molden file created by orca_2mkl for BaseName=NH

[Atoms] AU
N    1   7          1.4482093434         0.2479077805        -0.2867931660 
H    2   1          3.0488812995        -0.5831508859        -0.9617644821 
H    3   1          1.5244452648         2.0625831285        -0.9267298815 
H    4   1          1.7229775289         0.3809707327         1.6145679912 
[GTO]
  1 0
s   5 1.0 
     1712.8415853000        -1.0337585405
      257.6481267700        -1.8620740805
       58.4582458530        -2.7290401880
       16.1983679050        -2.6956734544
        5.0052600809        -1.0640914367
s   1 1.0 
        0.5873185657         0.4781513534
s   1 1.0 
        0.1876459225         0.2031956662
p   3 1.0 
       13.5714702330        -2.1850243557
        2.9257372874        -1.7466999024
        0.7992775075        -0.8114650516
p   1 1.0 
        0.2195434803         0.2142105067
d   1 1.0 
        1.0000000000         2.8508218814

  2 0
s   3 1.0 
       13.0107010000         0.1634903809
        1.9622572000         0.2773515510
        0.4445379600         0.3157501452
s   1 1.0 
        0.1219496200         0.1470772262
p   1 1.0 
        0.8000000000         1.0784563492

  3 0
s   3 1.0 
       13.0107010000         0.1634903809
        1.9622572000         0.2773515510
        0.4445379600         0.3157501452
s   1 1.0 
        0.1219496200         0.1470772262
p   1 1.0 
        0.8000000000         1.0784563492

  4 0
s   3 1.0 
       13.0107010000         0.1634903809
        1.9622572000         0.2773515510
        0.4445379600         0.3157501452
s   1 1.0 
        0.1219496200         0.1470772262
p   1 1.0 
        0.8000000000         1.0784563492

[5D]
[7F]
[9G]
[MO]
 Sym=     1a
 Ene= -1.55392098236135E+01
 Spin= Alpha
 Occup= 2.000000
  1      -0.990450984165
  2       0.035279225178
  3      -0.013429646586
  4      -0.002748071428
  5      -0.001572416554
  6      -0.000825804272
  7      -0.000600999691
  8      -0.000343917354
  9      -0.000180623355
 10       0.000298845711
 11      -0.000271228044
 12      -0.000155296866
 13      -0.000303526648
 14      -0.000516462614
 15      -0.002078611340
 16       0.002199538399
 17       0.001973045176
 18      -0.001024884140
 19      -0.000832319028
 20      -0.002078660787
 21       0.002199627726
 22       0.000093542982
 23       0.002237120801
 24      -0.000789118508
 25      -0.002078660710
 26       0.002199627547
 27       0.000338318590
 28       0.000163816699
 29       0.002344114371
 Sym=     1a
 Ene= -1.11999916604086E+00
 Spin= Alpha
 Occup= 2.000000
  1       0.258195962826
  2       0.505891970298
  3       0.202822317135
  4      -0.068794358374
  5      -0.039362280558
  6      -0.020672198186
  7      -0.000322715757
  8      -0.000184017038
  9      -0.000096556490
 10       0.000406121268
 11      -0.000368533432
 12      -0.000211201514
 13      -0.000412362701
 14      -0.000701769380
 15       0.192710131098
 16       0.018184405638
 17      -0.020818584313
 18       0.016841967687
 19       0.012770960650
 20       0.192709042645
 21       0.018183891220
 22       0.004273235997
 23      -0.026705884748
 24       0.012194317271
 25       0.192709045746
 26       0.018183890480
 27       0.001005461529
 28       0.000972886884
 29      -0.029634586814
 Sym=     1a
 Ene= -6.15532868998124E-01
 Spin= Alpha
 Occup= 2.000000
  1      -0.000000007155
  2      -0.000000014704
  3      -0.000000020146
  4      -0.029471748846
  5       0.248130816813
  6      -0.374392115523
  7       0.014127185595
  8      -0.118940701593
  9       0.179463643046
 10       0.019245657479
 11       0.011470106881
 12       0.010698064374
 13       0.012792108808
 14      -0.005622192736
 15       0.000322999396
 16       0.000115716420
 17       0.001201751197
 18      -0.010359491507
 19       0.015676112073
 20      -0.325703976530
 21      -0.116686596489
 22      -0.000435408494
 23       0.026965707007
 24       0.000825229329
 25       0.325380997585
 26       0.116570886406
 27      -0.001389704786
 28      -0.011357954509
 29      -0.024420178174
 Sym=     1a
 Ene= -6.15522406365753E-01
 Spin= Alpha
 Occup= 2.000000
  1       0.000002624237
  2       0.000005236088
  3       0.000007098679
  4       0.242548326209
  5      -0.306996447182
  6      -0.222557044348
  7      -0.116268219431
  8       0.147162816807
  9       0.106685627677
 10       0.010952951120
 11       0.011490619467
 12      -0.001510315112
 13      -0.020016166204
 14       0.012519840010
 15      -0.375903680970
 16      -0.134677436405
 17       0.025975884609
 18      -0.010090540510
 19      -0.008686906858
 20       0.187668625412
 21       0.067237338747
 22      -0.009184510218
 23      -0.008676112460
 24       0.017857067259
 25       0.188228061209
 26       0.067437769159
 27      -0.011662719817
 28       0.012274998437
 29      -0.013876269034
 Sym=     1a
 Ene= -4.25795794016003E-01
 Spin= Alpha
 Occup= 2.000000
  1       0.090403801573
  2       0.196070448548
  3       0.297389220607
  4       0.454358108883
  5       0.259988931311
  6       0.136542771535
  7      -0.377818171160
  8      -0.216191739536
  9      -0.113541038058
 10       0.006968793962
 11      -0.006326079760
 12      -0.003619522843
 13      -0.007079181912
 14      -0.012045360621
 15      -0.095189685983
 16      -0.047202193335
 17      -0.007883688685
 18      -0.017766644094
 19      -0.011140544166
 20      -0.095194146376
 21      -0.047204561797
 22      -0.019450631682
 23       0.002308802332
 24      -0.010874524764
 25      -0.095194138241
 26      -0.047204556058
 27      -0.017944220349
 28      -0.010450844306
 29       0.008408196424
 Sym=     1a
 Ene= 1.75621975687576E-01
 Spin= Alpha
 Occup= 0.000000
  1      -0.103787705571
  2      -0.091563445074
  3      -1.697477683189
  4       0.117749811514
  5       0.067374061980
  6       0.035383469325
  7      -0.334034986112
  8      -0.191125854946
  9      -0.100375064735
 10      -0.000559345456
 11       0.000507772959
 12       0.000291123856
 13       0.000567689008
 14       0.000966823244
 15       0.044780332892
 16       0.847227511710
 17      -0.009052750735
 18       0.008046214099
 19       0.006031514560
 20       0.044781723503
 21       0.847230720428
 22       0.002488892695
 23      -0.011984379180
 24       0.005766002442
 25       0.044781720021
 26       0.847230708837
 27       0.000985850983
 28       0.000746718118
 29      -0.013473575507
 Sym=     1a
 Ene= 2.69475491486932E-01
 Spin= Alpha
 Occup= 0.000000
  1       0.000000003422
  2       0.000000007050
  3       0.000000026449
  4       0.019188962712
  5      -0.161359814547
  6       0.243389675047
  7      -0.056660095516
  8       0.476454215211
  9      -0.718667399087
 10      -0.012367520705
 11      -0.010234663789
 12      -0.007211210543
 13      -0.008673475356
 14       0.005484340346
 15       0.000018954270
 16       0.001820264028
 17       0.000165631577
 18      -0.001554430359
 19       0.002373634218
 20      -0.015882744069
 21      -1.525107075434
 22      -0.000340339104
 23       0.018913363606
 24      -0.005572708203
 25       0.015863779831
 26       1.523286780540
 27      -0.001614426256
 28      -0.002314124956
 29      -0.019494005660
 Sym=     1a
 Ene= 2.69476484919154E-01
 Spin= Alpha
 Occup= 0.000000
  1       0.000001262134
  2       0.000002450544
  3       0.000011983353
  4       0.157691051033
  5      -0.199571047321
  6      -0.144741861016
  7      -0.465614454370
  8       0.589271607619
  9       0.427378093573
 10       0.007093733501
 11       0.007743480603
 12       0.001549941451
 13      -0.015172978199
 14       0.008489318174
 15       0.018334165950
 16       1.760000208975
 17      -0.018502950317
 18       0.010254053808
 19       0.008227212370
 20      -0.009152471205
 21      -0.878430811897
 22       0.001227556807
 23       0.009857805260
 24      -0.005975672330
 25      -0.009185314233
 26      -0.881583641977
 27       0.002572950571
 28      -0.001504862562
 29       0.011243470197
 Sym=     1a
 Ene= 7.30355328217015E-01
 Spin= Alpha
 Occup= 0.000000
  1      -0.000003160826
  2      -0.000003103970
  3      -0.000016194641
  4      -0.055409030670
  5       0.070138798603
  6       0.050846073658
  7       0.412171486561
  8      -0.521714252627
  9      -0.378210677355
 10       0.050394228053
 11       0.048176446461
 12      -0.046209427792
 13      -0.057677850451
 14       0.051634835225
 15      -1.072149795013
 16       0.524931793023
 17      -0.075921351305
 18       0.014227333451
 19       0.015253716713
 20       0.535322680591
 21      -0.262095523626
 22       0.046460574774
 23       0.012010409000
 24      -0.072493267281
 25       0.536909162767
 26      -0.262872271880
 27       0.054781368392
 28      -0.058296300130
 29       0.033999601887
 Sym=     1a
 Ene= 7.30371818807024E-01
 Spin= Alpha
 Occup= 0.000000
  1      -0.000000009016
  2      -0.000000011759
  3      -0.000000034923
  4      -0.006733502659
  5       0.056693276939
  6      -0.085542397242
  7       0.050084219750
  8      -0.421687781969
  9       0.636269227633
 10      -0.089998095517
 11      -0.009120597508
 12      -0.044803819571
 13      -0.052831493167
 14      -0.002765251488
 15      -0.000915889706
 16       0.000448384904
 17       0.005753507620
 18      -0.049270770279
 19       0.074490692767
 20       0.928998339705
 21      -0.454799576724
 22       0.002809526298
 23       0.077440488806
 24       0.025429413543
 25      -0.928082227360
 26       0.454351087601
 27      -0.005485396238
 28      -0.054082225853
 29      -0.060821688930
 Sym=     1a
 Ene= 8.99470749781820E-01
 Spin= Alpha
 Occup= 0.000000
  1       0.209879256721
  2       0.963344803126
  3      -1.443383630700
  4      -0.236795583595
  5      -0.135478133997
  6      -0.071148777151
  7      -0.176675474645
  8      -0.101103766391
  9      -0.053099437787
 10      -0.034958744368
 11       0.031735863298
 12       0.018162354258
 13       0.035507827799
 14       0.060426977589
 15      -0.535072539818
 16       0.591765420094
 17      -0.115293983323
 18       0.142769479178
 19       0.103479593520
 20      -0.535021620347
 21       0.591737079538
 22       0.066864529615
 23      -0.173354892258
 24       0.099291100368
 25      -0.535021731512
 26       0.591737133718
 27       0.043143135784
 28       0.027570478825
 29      -0.204352758071
 Sym=     1a
 Ene= 9.86375244779567E-01
 Spin= Alpha
 Occup= 0.000000
  1      -0.148771402567
  2      -0.804594848379
  3       0.774710370502
  4      -0.735766618696
  5      -0.421008516503
  6      -0.221107391811
  7      -0.811832749118
  8      -0.464529152948
  9      -0.243963151181
 10      -0.006339932876
 11       0.005754929793
 12       0.003293381193
 13       0.006440023142
 14       0.010957961262
 15       0.069292010040
 16      -0.071542307595
 17      -0.015551087758
 18       0.042016613896
 19       0.029017867523
 20       0.069291691130
 21      -0.071550750900
 22       0.028878548710
 23      -0.035092141805
 24       0.027995964638
 25       0.069291691212
 26      -0.071550728963
 27       0.023092499141
 28       0.013916992530
 29      -0.046067962034
 Sym=     1a
 Ene= 1.09568708818733E+00
 Spin= Alpha
 Occup= 0.000000
  1       0.000000019554
  2       0.000000121455
  3      -0.000000223852
  4       0.058207363785
  5      -0.489740299785
  6       0.738816414265
  7       0.110300822257
  8      -0.928039821348
  9       1.400029901765
 10       0.070824313968
 11       0.009510655147
 12       0.035538052676
 13       0.041949699021
 14       0.000647096838
 15      -0.000039325261
 16      -0.001134549422
 17      -0.002481799404
 18       0.022926167435
 19      -0.034910940028
 20       0.035730241031
 21       1.030683104287
 22      -0.009662429582
 23      -0.246975823158
 24       0.062712399341
 25      -0.035690896790
 26      -1.029548420470
 27       0.033966758723
 28       0.040441053589
 29       0.249188307576
 Sym=     1a
 Ene= 1.09568941488279E+00
 Spin= Alpha
 Occup= 0.000000
  1      -0.000007772071
  2      -0.000047936625
  3       0.000089555137
  4      -0.478649318650
  5       0.605820364406
  6       0.439291214944
  7      -0.907000617612
  8       1.147972108421
  9       0.832415614599
 10       0.039710708243
 11       0.038209069619
 12      -0.034309141624
 13      -0.047273972938
 14       0.041001774992
 15       0.041212460477
 16       1.189460155425
 17      -0.249753470025
 18       0.118549270236
 19       0.097909062841
 20      -0.020575984334
 21      -0.593774454225
 22       0.026533678887
 23       0.127032345762
 24      -0.076857299029
 25      -0.020644078904
 26      -0.595739637439
 27       0.043786248811
 28      -0.018474011032
 29       0.143627985603
 Sym=     1a
 Ene= 1.16336817868747E+00
 Spin= Alpha
 Occup= 0.000000
  1      -0.166314358527
  2      -1.417342407029
  3       3.551547384846
  4       0.236821665547
  5       0.135494049873
  6       0.071157268075
  7       0.812204644934
  8       0.464654165968
  9       0.244016998138
 10      -0.037800767070
 11       0.034314725862
 12       0.019640017805
 13       0.038393829636
 14       0.065337762754
 15      -0.697187328761
 16      -0.524505592074
 17       0.137705709328
 18       0.072848197920
 19       0.037446754153
 20      -0.697132512583
 21      -0.524480119800
 22       0.132531306612
 23       0.081853475514
 24       0.037585076778
 25      -0.697132623852
 26      -0.524480169169
 27       0.133204822397
 28       0.076148258774
 29       0.046206965005
 Sym=     1a
 Ene= 1.44493199621665E+00
 Spin= Alpha
 Occup= 0.000000
  1      -0.000000011328
  2      -0.000000082686
  3       0.000000130180
  4       0.002929837715
  5      -0.024663401353
  6       0.037212051082
  7      -0.019271764708
  8       0.162231840616
  9      -0.244774574240
 10      -0.033312645952
 11       0.194708884336
 12       0.006652272943
 13       0.011539125324
 14      -0.130312233148
 15       0.000141951831
 16       0.000025851420
 17       0.032386856621
 18      -0.271935803650
 19       0.411623298118
 20      -0.139929212433
 21      -0.025501514245
 22      -0.499287391952
 23       0.028929610986
 24       0.024779867847
 25       0.139787218140
 26       0.025475600417
 27       0.495674738868
 28       0.000782778233
 29      -0.070937585981
 Sym=     1a
 Ene= 1.44495544155712E+00
 Spin= Alpha
 Occup= 0.000000
  1       0.000004354118
  2       0.000031334075
  3      -0.000048702140
  4      -0.024112976649
  5       0.030497915895
  6       0.022111906816
  7       0.158577694424
  8      -0.200711281489
  9      -0.145512798679
 10      -0.014983200894
 11       0.006881917072
 12       0.191295975705
 13      -0.138501308000
 14       0.011614178485
 15      -0.161482580648
 16      -0.029431648276
 17      -0.278332655042
 18      -0.359166241667
 19      -0.215399077536
 20       0.080626146114
 21       0.014705103963
 22       0.039913023845
 23       0.163504431005
 24       0.467102565289
 25       0.080872029948
 26       0.014749929737
 27       0.001611308166
 28       0.495312510048
 29      -0.034456253057
 Sym=     1a
 Ene= 1.89120919996670E+00
 Spin= Alpha
 Occup= 0.000000
  1      -0.000000000000
  2       0.000000000004
  3      -0.000000000017
  4       0.000001472377
  5      -0.000012629951
  6       0.000019149024
  7       0.000004988760
  8      -0.000042797599
  9       0.000064889659
 10       0.000005095738
 11      -0.000003182485
 12       0.000002083357
 13       0.000002405039
 14       0.000002580031
 15       0.000000064971
 16       0.000000026538
 17       0.039862388175
 18      -0.337643786217
 19       0.510256238535
 20       0.000031433054
 21       0.000012716691
 22       0.266215060376
 23      -0.193610613710
 24      -0.517369053631
 25      -0.000031498008
 26      -0.000012743228
 27      -0.306083827838
 28       0.531309125772
 29       0.007029840145
 Sym=     1a
 Ene= 1.94286897440489E+00
 Spin= Alpha
 Occup= 0.000000
  1       0.088405881011
  2       0.855528520519
  3      -1.805775683688
  4      -0.053278013943
  5      -0.030488090186
  6      -0.016012184216
  7      -0.863929939968
  8      -0.494345233106
  9      -0.259622897323
 10      -0.111794827667
 11       0.101479644088
 12       0.058070427846
 13       0.113562389445
 14       0.193227252101
 15       0.533278480313
 16       0.192555726242
 17       0.417906861886
 18       0.303376146295
 19       0.168100308375
 20       0.533281519997
 21       0.192559529623
 22       0.473976793743
 23       0.206098349820
 24       0.166831093017
 25       0.533281515383
 26       0.192559524744
 27       0.466674936070
 28       0.267946260736
 29       0.073364863821
 Sym=     1a
 Ene= 2.08688165164723E+00
 Spin= Alpha
 Occup= 0.000000
  1      -0.000000000262
  2       0.000000025086
  3      -0.000000138809
  4      -0.000063260528
  5       0.000532542413
  6      -0.000803463714
  7      -0.059648275826
  8       0.502066087025
  9      -0.757491404303
 10      -0.005778126178
 11       0.082902221928
 12       0.006915880612
 13       0.009714952407
 14      -0.054669906321
 15       0.000363701150
 16       0.000144750720
 17       0.041905565619
 18      -0.357856510283
 19       0.539835986597
 20      -0.351685588517
 21      -0.139974627211
 22       0.383648429735
 23       0.118384075530
 24       0.537103984491
 25       0.351322046344
 26       0.139829922319
 27      -0.329752336871
 28      -0.566901062760
 29       0.139674690674
 Sym=     1a
 Ene= 2.08689744746851E+00
 Spin= Alpha
 Occup= 0.000000
  1      -0.000000013704
  2       0.000009994252
  3      -0.000052221981
  4      -0.000499591896
  5       0.000637958412
  6       0.000462179918
  7      -0.490736319995
  8       0.621082845384
  9       0.450297138622
 10       0.001687934677
 11      -0.007330487735
 12      -0.076387548791
 13       0.063674666572
 14      -0.009642557605
 15       0.405870108856
 16       0.161543067683
 17      -0.323115535058
 18      -0.507714817481
 19      -0.311418321915
 20      -0.202590270986
 21      -0.080637678739
 22       0.546254187597
 23      -0.168275891357
 24      -0.322430497558
 25      -0.203220082611
 26      -0.080888358466
 27       0.565068362533
 28      -0.321607791924
 29      -0.089427462502
 Sym=     1a
 Ene= 2.41991649515732E+00
 Spin= Alpha
 Occup= 0.000000
  1      -0.000002218007
  2      -0.000011620564
  3       0.000009703962
  4       0.404045142346
  5      -0.511432163187
  6      -0.370684198105
  7      -0.016159420110
  8       0.020461182165
  9       0.014829757056
 10      -0.125688723929
 11      -0.124112479981
 12       0.082407420217
 13       0.172704896347
 14      -0.133821896326
 15       0.114862988689
 16       0.329929673502
 17      -0.777661590833
 18       0.328357905782
 19       0.277956360000
 20      -0.057355802686
 21      -0.164745708367
 22       0.081870791855
 23       0.398649134532
 24      -0.190357181637
 25      -0.057509795243
 26      -0.165188040974
 27       0.130544278142
 28      -0.011539558484
 29       0.430969723548
 Sym=     1a
 Ene= 2.41993074970922E+00
 Spin= Alpha
 Occup= 0.000000
  1       0.000000005087
  2       0.000000031148
  3      -0.000000037319
  4      -0.049061649411
  5       0.413309853983
  6      -0.623719792254
  7       0.001964293286
  8      -0.016547901533
  9       0.024972171122
 10      -0.223313854203
 11      -0.059306965317
 12      -0.115462965214
 13      -0.136827128624
 14       0.017060345725
 15      -0.000088921010
 16      -0.000255370180
 17      -0.004671055648
 18       0.044409570678
 19      -0.067712147414
 20       0.099536828935
 21       0.285850905324
 22      -0.071546699080
 23      -0.743025895103
 24       0.193227302738
 25      -0.099447890211
 26      -0.285595518857
 27       0.144849405868
 28       0.120443128316
 29       0.746997500859
 Sym=     1a
 Ene= 2.80994875221159E+00
 Spin= Alpha
 Occup= 0.000000
  1       0.169955186630
  2       0.788490716878
  3       1.478906546398
  4      -0.421209514262
  5      -0.241013879417
  6      -0.126576380261
  7       0.658430650374
  8       0.376762574614
  9       0.197870884427
 10      -0.189190303571
 11       0.171731628647
 12       0.098272337411
 13       0.192182302430
 14       0.326994957599
 15      -0.652884695395
 16      -0.266893184533
 17       0.316565846471
 18      -0.580559619714
 19      -0.408895185930
 20      -0.652891719182
 21      -0.266911095133
 22      -0.348107257026
 23       0.573019475918
 24      -0.393650050023
 25      -0.652891705722
 26      -0.266911059525
 27      -0.261540957084
 28      -0.160216009130
 29       0.714435052772
 Sym=     1a
 Ene= 3.15983889287279E+00
 Spin= Alpha
 Occup= 0.000000
  1      -0.000042493538
  2      -0.000217702529
  3      -0.000277068967
  4       0.000443823866
  5      -0.000398045805
  6      -0.000298789746
  7       0.204608660008
  8      -0.259005337465
  9      -0.187788844576
 10       0.129070684857
 11       0.025692561024
 12      -0.937583337150
 13       0.570408697441
 14       0.008109776807
 15      -0.131501435150
 16      -0.100166665542
 17      -0.163655510553
 18      -0.212943503963
 19      -0.127524675063
 20       0.065860508025
 21       0.050075363075
 22      -0.071461689398
 23       0.164957543525
 24       0.460839255182
 25       0.066068807781
 26       0.050233931548
 27      -0.108261493202
 28       0.481968640925
 29      -0.018617758770
 Sym=     1a
 Ene= 3.15984856469015E+00
 Spin= Alpha
 Occup= 0.000000
  1      -0.000000111655
  2      -0.000000572787
  3      -0.000000724356
  4       0.000044586360
  5      -0.000373148188
  6       0.000563242887
  7       0.024874715616
  8      -0.209348111739
  9       0.315843357674
 10      -0.260913999119
 11       0.887509522973
 12      -0.022716641208
 13      -0.009680914592
 14      -0.604543258684
 15      -0.000119879805
 16      -0.000091414791
 17      -0.035556812601
 18       0.299710745380
 19      -0.453341370416
 20       0.114057200354
 21       0.086822459479
 22       0.349798112028
 23      -0.057864490935
 24      -0.120581328838
 25      -0.113936199895
 26      -0.086730671377
 27      -0.355944260767
 28       0.109121261331
 29       0.044417095261
 Sym=     1a
 Ene= 3.23356679729910E+00
 Spin= Alpha
 Occup= 0.000000
  1      -0.164189624887
  2      -0.796445501235
  3      -1.312128211294
  4       0.349042052858
  5       0.199697104101
  6       0.104874430548
  7      -0.190479156283
  8      -0.108843606887
  9      -0.057142964334
 10      -0.401925546369
 11       0.364818827778
 12       0.209026071891
 13       0.408073279167
 14       0.694655840196
 15       0.652904720864
 16       0.205340029998
 17      -0.662510729483
 18       0.107337749556
 19       0.122784086374
 20       0.652808501864
 21       0.205277100312
 22      -0.238091398239
 23      -0.629371058142
 24       0.112856336661
 25       0.652808693996
 26       0.205277225279
 27      -0.293353560651
 28      -0.161285647457
 29      -0.594527204290
 Sym=     1a
 Ene= 3.71655287532994E+00
 Spin= Alpha
 Occup= 0.000000
  1       0.000000013988
  2       0.000000086562
  3       0.000000058855
  4       0.047861295315
  5      -0.402805995670
  6       0.607713668018
  7      -0.063277759878
  8       0.532552368355
  9      -0.803462143322
 10      -1.054684872701
 11      -0.246460807453
 12      -0.541476679409
 13      -0.641110268525
 14       0.058750588945
 15       0.001087164866
 16       0.000348371141
 17       0.001222213190
 18      -0.016461208253
 19       0.025806916844
 20      -1.031642844906
 21      -0.330575466079
 22       0.026867350938
 23       0.832312067623
 24      -0.279571632216
 25       1.030555554986
 26       0.330227066661
 27      -0.116330549715
 28      -0.073204642402
 29      -0.866666077899
 Sym=     1a
 Ene= 3.71657516237852E+00
 Spin= Alpha
 Occup= 0.000000
  1       0.000005644376
  2       0.000035637309
  3       0.000025052434
  4       0.393691450034
  5      -0.498307801567
  6      -0.361295077585
  7      -0.520502835796
  8       0.658792365458
  9       0.477654978632
 10       0.593244276535
 11       0.582046750300
 12      -0.418774452263
 13      -0.788562399323
 14       0.626809462894
 15       1.190580419786
 16       0.381504882448
 17      -0.841632837610
 18       0.438608104102
 19       0.355949801494
 20      -0.594375226966
 21      -0.190456622107
 22       0.030828264860
 23       0.468395666050
 24      -0.190875685192
 25      -0.596258314622
 26      -0.191060027656
 27       0.084971542211
 28       0.011724779629
 29       0.501043339427
