
                                 *****************
                                 * O   R   C   A *
                                 *****************

                                            #,                                       
                                            ###                                      
                                            ####                                     
                                            #####                                    
                                            ######                                   
                                           ########,                                 
                                     ,,################,,,,,                         
                               ,,#################################,,                 
                          ,,##########################################,,             
                       ,#########################################, ''#####,          
                    ,#############################################,,   '####,        
                  ,##################################################,,,,####,       
                ,###########''''           ''''###############################       
              ,#####''   ,,,,##########,,,,          '''####'''          '####       
            ,##' ,,,,###########################,,,                        '##       
           ' ,,###''''                  '''############,,,                           
         ,,##''                                '''############,,,,        ,,,,,,###''
      ,#''                                            '''#######################'''  
     '                                                          ''''####''''         
             ,#######,   #######,   ,#######,      ##                                
            ,#'     '#,  ##    ##  ,#'     '#,    #''#        ######   ,####,        
            ##       ##  ##   ,#'  ##            #'  '#       #        #'  '#        
            ##       ##  #######   ##           ,######,      #####,   #    #        
            '#,     ,#'  ##    ##  '#,     ,#' ,#      #,         ##   #,  ,#        
             '#######'   ##     ##  '#######'  #'      '#     #####' # '####'        



                  #######################################################
                  #                        -***-                        #
                  #          Department of theory and spectroscopy      #
                  #    Directorship and core code : Frank Neese         #
                  #        Max Planck Institute fuer Kohlenforschung    #
                  #                Kaiser Wilhelm Platz 1               #
                  #                 D-45470 Muelheim/Ruhr               #
                  #                      Germany                        #
                  #                                                     #
                  #                  All rights reserved                #
                  #                        -***-                        #
                  #######################################################


                         Program Version 5.0.3 -  RELEASE  -


 With contributions from (in alphabetic order):
   Daniel Aravena         : Magnetic Suceptibility
   Michael Atanasov       : Ab Initio Ligand Field Theory (pilot matlab implementation)
   Alexander A. Auer      : GIAO ZORA, VPT2 properties, NMR spectrum
   Ute Becker             : Parallelization
   Giovanni Bistoni       : ED, misc. LED, open-shell LED, HFLD
   Martin Brehm           : Molecular dynamics
   Dmytro Bykov           : SCF Hessian
   Vijay G. Chilkuri      : MRCI spin determinant printing, contributions to CSF-ICE
   Dipayan Datta          : RHF DLPNO-CCSD density
   Achintya Kumar Dutta   : EOM-CC, STEOM-CC
   Dmitry Ganyushin       : Spin-Orbit,Spin-Spin,Magnetic field MRCI
   Miquel Garcia          : C-PCM and meta-GGA Hessian, CC/C-PCM, Gaussian charge scheme
   Yang Guo               : DLPNO-NEVPT2, F12-NEVPT2, CIM, IAO-localization
   Andreas Hansen         : Spin unrestricted coupled pair/coupled cluster methods
   Benjamin Helmich-Paris : MC-RPA, TRAH-SCF, COSX integrals
   Lee Huntington         : MR-EOM, pCC
   Robert Izsak           : Overlap fitted RIJCOSX, COSX-SCS-MP3, EOM
   Marcus Kettner         : VPT2
   Christian Kollmar      : KDIIS, OOCD, Brueckner-CCSD(T), CCSD density, CASPT2, CASPT2-K
   Simone Kossmann        : Meta GGA functionals, TD-DFT gradient, OOMP2, MP2 Hessian
   Martin Krupicka        : Initial AUTO-CI
   Lucas Lang             : DCDCAS
   Marvin Lechner         : AUTO-CI (C++ implementation), FIC-MRCC
   Dagmar Lenk            : GEPOL surface, SMD
   Dimitrios Liakos       : Extrapolation schemes; Compound Job, initial MDCI parallelization
   Dimitrios Manganas     : Further ROCIS development; embedding schemes
   Dimitrios Pantazis     : SARC Basis sets
   Anastasios Papadopoulos: AUTO-CI, single reference methods and gradients
   Taras Petrenko         : DFT Hessian,TD-DFT gradient, ASA, ECA, R-Raman, ABS, FL, XAS/XES, NRVS
   Peter Pinski           : DLPNO-MP2, DLPNO-MP2 Gradient
   Christoph Reimann      : Effective Core Potentials
   Marius Retegan         : Local ZFS, SOC
   Christoph Riplinger    : Optimizer, TS searches, QM/MM, DLPNO-CCSD(T), (RO)-DLPNO pert. Triples
   Tobias Risthaus        : Range-separated hybrids, TD-DFT gradient, RPA, STAB
   Michael Roemelt        : Original ROCIS implementation
   Masaaki Saitow         : Open-shell DLPNO-CCSD energy and density
   Barbara Sandhoefer     : DKH picture change effects
   Avijit Sen             : IP-ROCIS
   Kantharuban Sivalingam : CASSCF convergence, NEVPT2, FIC-MRCI
   Bernardo de Souza      : ESD, SOC TD-DFT
   Georgi Stoychev        : AutoAux, RI-MP2 NMR, DLPNO-MP2 response
   Willem Van den Heuvel  : Paramagnetic NMR
   Boris Wezisla          : Elementary symmetry handling
   Frank Wennmohs         : Technical directorship


 We gratefully acknowledge several colleagues who have allowed us to
 interface, adapt or use parts of their codes:
   Stefan Grimme, W. Hujo, H. Kruse, P. Pracht,  : VdW corrections, initial TS optimization,
                  C. Bannwarth, S. Ehlert          DFT functionals, gCP, sTDA/sTD-DF
   Ed Valeev, F. Pavosevic, A. Kumar             : LibInt (2-el integral package), F12 methods
   Garnet Chan, S. Sharma, J. Yang, R. Olivares  : DMRG
   Ulf Ekstrom                                   : XCFun DFT Library
   Mihaly Kallay                                 : mrcc  (arbitrary order and MRCC methods)
   Jiri Pittner, Ondrej Demel                    : Mk-CCSD
   Frank Weinhold                                : gennbo (NPA and NBO analysis)
   Christopher J. Cramer and Donald G. Truhlar   : smd solvation model
   Lars Goerigk                                  : TD-DFT with DH, B97 family of functionals
   V. Asgeirsson, H. Jonsson                     : NEB implementation
   FAccTs GmbH                                   : IRC, NEB, NEB-TS, DLPNO-Multilevel, CI-OPT
                                                   MM, QMMM, 2- and 3-layer-ONIOM, Crystal-QMMM,
                                                   LR-CPCM, SF, NACMEs, symmetry and pop. for TD-DFT,
                                                   nearIR, NL-DFT gradient (VV10), updates on ESD,
                                                   ML-optimized integration grids
   S Lehtola, MJT Oliveira, MAL Marques          : LibXC Library
   Liviu Ungur et al                             : ANISO software


 Your calculation uses the libint2 library for the computation of 2-el integrals
 For citations please refer to: http://libint.valeyev.net

 Your ORCA version has been built with support for libXC version: 5.1.0
 For citations please refer to: https://tddft.org/programs/libxc/

 This ORCA versions uses:
   CBLAS   interface :  Fast vector & matrix operations
   LAPACKE interface :  Fast linear algebra routines
   Shared memory     :  Shared parallel matrices


================================================================================

----- Orbital basis set information -----
Your calculation utilizes the basis: def2-SVP
   F. Weigend and R. Ahlrichs, Phys. Chem. Chem. Phys. 7, 3297 (2005).

The basis set includes element-specific modifications.

----- AuxJ basis set information -----
Your calculation utilizes the auxiliary basis: def2/J
   F. Weigend, Phys. Chem. Chem. Phys. 8, 1057 (2006).

The basis set includes element-specific modifications.

================================================================================
                                        WARNINGS
                       Please study these warnings very carefully!
================================================================================


INFO   : the flag for use of the SHARK integral package has been found!


WARNING: TRAH-SCF with ROHF wave function is not implemented yet
  ===> : Turning TRAH off

================================================================================
                                       INPUT FILE
================================================================================
NAME = XeF4_atom54.inp
|  1> # input to generate an atomic fitting density for Xe
|  2> # this file is used internally by ORCA
|  3> #
|  4> # atomic ground state (S=1): 1s2 2s2 2p6 3s2 3p6 4s2 3d10 4p6 5s2 4d10 5p6 
|  5> #
|  6> ! RHF AllowRHF def2-SVP def2/J  NoMulliken NoLoewdin NoMayer NoPrintMOs 
|  7> 
|  8> %output print[p_atomdensfit] 2 end
|  9> 
| 10> %scf
| 11>   guess hcore
| 12>   maxiter 1000
| 13>   maxdisk 500000
| 14>   SCFMode Conventional
| 15>   lshift 1.000000
| 16>   hftyp rohf
| 17>   rohf_case sahf
| 18>   rohf_numop   2
| 19>   rohf_norb[1] 3
| 20>   rohf_nel[1]  6
| 21> end
| 22> 
| 23> %basis
| 24>   NewECP 54
| 25>     N_core 28
| 26>     lmax f
| 27>     s 7
| 28>       1      40.0051840000     49.9979620000  2
| 29>       2      17.8122140000    281.0133030000  2
| 30>       3       9.3041500000     61.5382550000  2
| 31>       4      20.8815570000     23.0892950000  2
| 32>       5      20.7834430000     30.0744750000  2
| 33>       6       5.2533890000      0.2882270000  2
| 34>       7       5.3611880000      0.3869240000  2
| 35>     p 8
| 36>       1      15.7017720000     67.4391420000  2
| 37>       2      15.2586080000    134.8747110000  2
| 38>       3       9.2921840000     14.6633000000  2
| 39>       4       8.5590030000     29.3547300000  2
| 40>       5      20.8815570000     23.0892950000  2
| 41>       6      20.7834430000     30.0744750000  2
| 42>       7       5.2533890000      0.2882270000  2
| 43>       8       5.3611880000      0.3869240000  2
| 44>     d 10
| 45>       1      15.1856000000     35.4369080000  2
| 46>       2      14.2845000000     53.1957720000  2
| 47>       3       7.1218890000      9.0462320000  2
| 48>       4       6.9919630000     13.2236810000  2
| 49>       5       0.6239460000      0.0848530000  2
| 50>       6       0.6472840000      0.0441550000  2
| 51>       7      20.8815570000     23.0892950000  2
| 52>       8      20.7834430000     30.0744750000  2
| 53>       9       5.2533890000      0.2882270000  2
| 54>      10       5.3611880000      0.3869240000  2
| 55>     f 4
| 56>       1      20.8815570000    -23.0892950000  2
| 57>       2      20.7834430000    -30.0744750000  2
| 58>       3       5.2533890000     -0.2882270000  2
| 59>       4       5.3611880000     -0.3869240000  2
| 60>   end
| 61>   NewGTO 54
| 62>     s 5 
| 63>      1    6420.2481656000      0.0005803743
| 64>      2     983.5453066400      0.0037590265
| 65>      3     219.4388136400      0.0106482436
| 66>      4      23.0125878070     -0.3399766589
| 67>      5      18.0483244900      1.3305328819
| 68>     s 2 
| 69>      1      11.7525501630      0.6426392401
| 70>      2       6.2390917199      0.3743679621
| 71>     s 1 
| 72>      1       2.6257211320      1.0000000000
| 73>     s 1 
| 74>      1       1.2905042943      1.0000000000
| 75>     s 1 
| 76>      1       0.3620418506      1.0000000000
| 77>     s 1 
| 78>      1       0.1406988809      1.0000000000
| 79>     p 3 
| 80>      1     193.8143254500      0.0040702352
| 81>      2      21.7252280860      0.2448817432
| 82>      3       9.8891605641     -1.1935854566
| 83>     p 4 
| 84>      1      13.9606838260     -0.0377633548
| 85>      2       4.0928947097      0.2717857050
| 86>      3       2.2546815460      0.5382425559
| 87>      4       1.1546596184      0.2635338256
| 88>     p 1 
| 89>      1       0.5232192313      1.0000000000
| 90>     p 1 
| 91>      1       0.2194556980      1.0000000000
| 92>     p 1 
| 93>      1       0.0861589968      1.0000000000
| 94>     d 6 
| 95>      1     135.6030003800      0.0008766390
| 96>      2      38.7270626920      0.0065204533
| 97>      3      15.3773280890     -0.0099344899
| 98>      4       5.2602537686      0.2450969609
| 99>      5       2.6590627424      0.4757695225
|100>      6       1.2938205124      0.3857760473
|101>     d 1 
|102>      1       0.5805083014      1.0000000000
|103>     d 1 
|104>      1       0.1800000000      1.0000000000
|105>   end
|106>   NewAuxGTO 54
|107>     S 1
|108>      1 1310.72 1.0
|109>     S 1
|110>      1  655.36 1.0
|111>     S 1
|112>      1  327.68 1.0
|113>     S 1
|114>      1  163.84 1.0
|115>     S 1
|116>      1   81.82 1.0
|117>     S 1
|118>      1   40.96 1.0
|119>     S 1
|120>      1   20.48 1.0
|121>     S 1
|122>      1   10.24 1.0
|123>     S 1
|124>      1    5.12 1.0
|125>     S 1
|126>      1    2.56 1.0
|127>     S 1
|128>      1    1.28 1.0
|129>     S 1
|130>      1    0.64 1.0
|131>     S 1
|132>      1    0.32 1.0
|133>     S 1
|134>      1    0.16 1.0
|135>     S 1
|136>      1    0.08 1.0
|137>     S 1
|138>      1    0.04 1.0
|139>     S 1
|140>      1    0.02 1.0
|141>     S 1
|142>      1    0.01 1.0
|143>   end
|144> end
|145> 
|146> * xyz 0 1
|147> 54  0.0 0.0 0.0
|148> *
|149> 
|150> 
|151>                          ****END OF INPUT****
================================================================================

                       ****************************
                       * Single Point Calculation *
                       ****************************

---------------------------------
CARTESIAN COORDINATES (ANGSTROEM)
---------------------------------
  Xe     0.000000    0.000000    0.000000

----------------------------
CARTESIAN COORDINATES (A.U.)
----------------------------
  NO LB      ZA    FRAG     MASS         X           Y           Z
   0 Xe   26.0000*   0   131.300    0.000000    0.000000    0.000000
* core charge reduced due to ECP

--------------------------------
INTERNAL COORDINATES (ANGSTROEM)
--------------------------------
 Xe     0   0   0     0.000000000000     0.00000000     0.00000000

---------------------------
INTERNAL COORDINATES (A.U.)
---------------------------
 Xe     0   0   0     0.000000000000     0.00000000     0.00000000

---------------------
BASIS SET INFORMATION
---------------------
There are 1 groups of distinct atoms

 Group   1 Type Xe  : 11s10p8d contracted to 6s5p3d pattern {521111/34111/611}

Atom   0Xe   basis set group =>   1
---------------------------------
AUXILIARY/J BASIS SET INFORMATION
---------------------------------
There are 1 groups of distinct atoms

 Group   1 Type Xe  : 18s contracted to 18s pattern {111111111111111111}

Atom   0Xe   basis set group =>   1
-------------------------
ECP PARAMETER INFORMATION
-------------------------

 Group 1, Type Xe ECP (replacing 28 core electrons, lmax=3)

Atom   0Xe   ECP group =>   1

------------------------------------------------------------------------------
                           ORCA GTO INTEGRAL CALCULATION
------------------------------------------------------------------------------
------------------------------------------------------------------------------
                   ___                                                        
                  /   \      - P O W E R E D   B Y -                         
                 /     \                                                     
                 |  |  |   _    _      __       _____    __    __             
                 |  |  |  | |  | |    /  \     |  _  \  |  |  /  |          
                  \  \/   | |  | |   /    \    | | | |  |  | /  /          
                 / \  \   | |__| |  /  /\  \   | |_| |  |  |/  /          
                |  |  |   |  __  | /  /__\  \  |    /   |      \           
                |  |  |   | |  | | |   __   |  |    \   |  |\   \          
                \     /   | |  | | |  |  |  |  | |\  \  |  | \   \       
                 \___/    |_|  |_| |__|  |__|  |_| \__\ |__|  \__/        
                                                                              
                      - O R C A' S   B I G   F R I E N D -                    
                                      &                                       
                       - I N T E G R A L  F E E D E R -                       
                                                                              
 v1 FN, 2020, v2 2021                                                         
------------------------------------------------------------------------------


Reading SHARK input file XeF4_atom54.SHARKINP.tmp ... ok
----------------------
SHARK INTEGRAL PACKAGE
----------------------

Number of atoms                             ...      1
Number of basis functions                   ...     36
Number of shells                            ...     14
Maximum angular momentum                    ...      2
Integral batch strategy                     ... SHARK/LIBINT Hybrid
RI-J (if used) integral strategy            ... SPLIT-RIJ (Revised 2003 algorithm where possible)
Printlevel                                  ...      1
Contraction scheme used                     ... SEGMENTED contraction
Coulomb Range Separation                    ... NOT USED
Exchange Range Separation                   ... NOT USED
Finite Nucleus Model                        ... NOT USED
Auxiliary Coulomb fitting basis             ... AVAILABLE
   # of basis functions in Aux-J            ...     18
   # of shells in Aux-J                     ...     18
   Maximum angular momentum in Aux-J        ...      0
Auxiliary J/K fitting basis                 ... NOT available
Auxiliary Correlation fitting basis         ... NOT available
Auxiliary 'external' fitting basis          ... NOT available
Integral threshold                          ...     1.000000e-10
Primitive cut-off                           ...     1.000000e-11
Primitive pair pre-selection threshold      ...     1.000000e-11

Calculating pre-screening integrals         ... done (  0.0 sec) Dimension = 14
Organizing shell pair data                  ... done (  0.0 sec)
Shell pair information
Total number of shell pairs                 ...       105
Shell pairs after pre-screening             ...       105
Total number of primitive shell pairs       ...       470
Primitive shell pairs kept                  ...       470
          la=0 lb=0:     21 shell pairs
          la=1 lb=0:     30 shell pairs
          la=1 lb=1:     15 shell pairs
          la=2 lb=0:     18 shell pairs
          la=2 lb=1:     15 shell pairs
          la=2 lb=2:      6 shell pairs

Calculating one electron integrals          ... done (  0.0 sec)
Calculating ECP integrals                   ... done (  0.0 sec)
Calculating RI/J V-Matrix + Cholesky decomp.... done (  0.0 sec)
Calculating Nuclear repulsion               ... done (  0.0 sec) ENN=      0.000000000000 Eh
Calculating 4-index integrals               ... 
    -> SHARK/Ints2Disk: Thresh =     1.000000e-10 TCut=    1.000000e-11 
    -> calling libint FockFlag=2 Lmax_loc=2
    -> L=0 1 2 2:     0.003 sec done=       180 (=100.0%) skipped=         0 
    -> L=0 2 2 2:     0.007 sec done=       108 (=100.0%) skipped=         0 
    -> L=1 1 1 2:     0.005 sec done=       225 (=100.0%) skipped=         0 
    -> L=1 1 2 2:     0.005 sec done=        90 (=100.0%) skipped=         0 
    -> L=1 2 1 2:     0.007 sec done=       120 (=100.0%) skipped=         0 
    -> L=1 2 2 2:     0.014 sec done=        90 (=100.0%) skipped=         0 
    -> L=2 2 2 2:     0.013 sec done=        21 (=100.0%) skipped=         0 
    ->Total LIBINT loop time =    0.057 sec
    -> L=0 0 0 0:     0.000 sec done=       231 (=100.0%) skipped=         0 
    -> L=1 0 0 0:     0.000 sec done=       630 (=100.0%) skipped=         0 
    -> L=1 0 1 0:     0.001 sec done=       465 (=100.0%) skipped=         0 
    -> L=1 1 0 0:     0.000 sec done=       315 (=100.0%) skipped=         0 
    -> L=1 1 1 0:     0.002 sec done=       450 (=100.0%) skipped=         0 
    -> L=1 1 1 1:     0.002 sec done=       120 (=100.0%) skipped=         0 
    -> L=2 0 0 0:     0.001 sec done=       378 (=100.0%) skipped=         0 
    -> L=2 0 1 0:     0.002 sec done=       540 (=100.0%) skipped=         0 
    -> L=2 0 1 1:     0.003 sec done=       270 (=100.0%) skipped=         0 
    -> L=2 0 2 0:     0.002 sec done=       171 (=100.0%) skipped=         0 
    -> L=2 1 0 0:     0.001 sec done=       315 (=100.0%) skipped=         0 
    -> L=2 1 1 0:     0.004 sec done=       450 (=100.0%) skipped=         0 
    -> L=2 1 2 0:     0.007 sec done=       270 (=100.0%) skipped=         0 
    -> L=2 2 0 0:     0.001 sec done=       126 (=100.0%) skipped=         0 
    ->Total SHARK integral loop time =    0.027 sec
    -> Total Integral generation matrix time =    0.093 sec
    -> Number of small integrals   =         0
    -> Number of medium integrals  =         0
    -> Number of large integrals   =     27240
    -> Number of MB stored         =         0 MB


SHARK setup successfully completed in   0.2 seconds

Maximum memory used throughout the entire GTOINT-calculation: 32.7 MB
-------------------------------------------------------------------------------
                                 ORCA SCF
-------------------------------------------------------------------------------

------------
SCF SETTINGS
------------
Hamiltonian:
 Ab initio Hamiltonian  Method          .... Hartree-Fock(GTOs)


General Settings:
 Integral files         IntName         .... XeF4_atom54
 Hartree-Fock type      HFTyp           .... ROHF
 Total Charge           Charge          ....    0
 Multiplicity           Mult            ....    1
 Number of Electrons    NEL             ....   26
 Basis Dimension        Dim             ....   36
 Nuclear Repulsion      ENuc            ....      0.0000000000 Eh

Convergence Acceleration:
 DIIS                   CNVDIIS         .... on
   Start iteration      DIISMaxIt       ....    12
   Startup error        DIISStart       ....  0.200000
   # of expansion vecs  DIISMaxEq       ....     5
   Bias factor          DIISBfac        ....   1.050
   Max. coefficient     DIISMaxC        ....  10.000
 Trust-Rad. Augm. Hess. CNVTRAH         .... off
 SOSCF                  CNVSOSCF        .... off
 Level Shifting         CNVShift        .... on
   Level shift para.    LevelShift      ....    1.0000
   Turn off err/grad.   ShiftErr        ....    0.0010
 Zerner damping         CNVZerner       .... off
 Static damping         CNVDamp         .... on
   Fraction old density DampFac         ....    0.7000
   Max. Damping (<1)    DampMax         ....    0.9800
   Min. Damping (>=0)   DampMin         ....    0.0000
   Turn off err/grad.   DampErr         ....    0.1000
 Fernandez-Rico         CNVRico         .... off

SCF Procedure:
 Maximum # iterations   MaxIter         ....  1000
 SCF integral mode      SCFMode         .... Conventional
 Integral Threshold     Thresh          ....  1.000e-10 Eh
 Primitive CutOff       TCut            ....  1.000e-11 Eh
 Integral Buffer length BufferLength    .... 1048576
 Integral index format  IndFormat       ....     0
 Integral value format  ValFormat       ....     0
 Integral Storage       Thresh          ....  1.000e-10 Eh

Convergence Tolerance:
 Convergence Check Mode ConvCheckMode   .... Total+1el-Energy
 Convergence forced     ConvForced      .... 0
 Energy Change          TolE            ....  1.000e-06 Eh
 1-El. energy change                    ....  1.000e-03 Eh
 DIIS Error             TolErr          ....  1.000e-06


Diagonalization of the overlap matrix:
Smallest eigenvalue                        ... 6.078e-03
Time for diagonalization                   ...    0.002 sec
Threshold for overlap eigenvalues          ... 1.000e-08
Number of eigenvalues below threshold      ... 0
Time for construction of square roots      ...    0.001 sec
Total time needed                          ...    0.003 sec

--------------------
INITIAL GUESS: HCORE
--------------------
AVERAGE-CONFIGURATION (SAHF) CASE FOUND

-------------------
FINAL ROHF SETTINGS
-------------------
Number of operators             ... 2
  operator   0:  10 orbitals  20 electrons n(mue)= 2.000
  operator   1:   3 orbitals   6 electrons n(mue)= 2.000
Vector coupling coefficients a and b (Zerner convention):
   1.000    1.000           1.000    1.000 
   1.000    1.000           1.000    1.000 

                      -----------------
                      INTIAL GUESS DONE 
                      -----------------

 InCore treatment chosen:
   Memory dedicated               ...    1024 MB
   Memory needed                  ...      0 MB
   Number of tiny    integrals    ...       0
   Number of small   integrals    ...       0
   Number of regular integrals    ...   27240

--------------
SCF ITERATIONS
--------------
ITER       Energy         Delta-E        Max-DP      RMS-DP      [F,P]     Damp
  0   -310.7532728469   0.000000000000 4.25026936  0.13042160  2.9052830 0.7000
  1   -321.6715906199 -10.918317772993 3.28057629  0.09774312  0.8268977 0.7000
  2   -324.3139439702  -2.642353350328 2.30973784  0.06877489  0.2281783 0.7000
                            ****Activating DIIS****
  3   -325.5071911764  -1.193247206199 1.59193125  0.04774986  0.1047690 0.7000
  4   -326.3119404252  -0.804749248857 3.61148552  0.10949144  0.0869060 0.0000
  5   -328.2571797719  -1.945239346682 0.02443920  0.00129392  0.1033647 0.7000
  6   -328.2850562699  -0.027876497952 0.04795094  0.00344677  0.0210881 0.0000
  7   -328.2872010255  -0.002144755618 0.01197901  0.00053073  0.0461229 0.0000
  8   -328.2911786308  -0.003977605279 0.01159315  0.00047333  0.0373740 0.0000
  9   -328.2935444832  -0.002365852436 0.02725698  0.00134708  0.0314468 0.0000
 10   -328.2977459302  -0.004201446998 0.02967880  0.00135932  0.0138779 0.0000
 11   -328.2981936923  -0.000447762049 0.00896739  0.00036892  0.0075392 0.0000
 12   -328.2983692525  -0.000175560285 0.00524491  0.00015607  0.0029630 0.0000
 13   -328.2983848222  -0.000015569689 0.00421866  0.00012539  0.0016364 0.0000
 14   -328.2983918725  -0.000007050266 0.00252645  0.00007733  0.0006151 0.0000
 15   -328.2983936101  -0.000001737559 0.00014697  0.00000926  0.0001371 0.0000
                 **** Energy Check signals convergence ****

               *****************************************************
               *                     SUCCESS                       *
               *           SCF CONVERGED AFTER  16 CYCLES          *
               *****************************************************


----------------
TOTAL SCF ENERGY
----------------

Total Energy       :         -328.29839367 Eh           -8933.45346 eV

Components:
Nuclear Repulsion  :            0.00000000 Eh               0.00000 eV
Electronic Energy  :         -328.29839367 Eh           -8933.45346 eV
One Electron Energy:         -571.60267845 Eh          -15554.09964 eV
Two Electron Energy:          243.30428478 Eh            6620.64618 eV

Virial components:
Potential Energy   :         -453.87931191 Eh          -12350.68397 eV
Kinetic Energy     :          125.58091825 Eh            3417.23051 eV
Virial Ratio       :            3.61423788


---------------
SCF CONVERGENCE
---------------

  Last Energy change         ...   -5.7000e-08  Tolerance :   1.0000e-06
  Last MAX-Density change    ...    1.4154e-04  Tolerance :   1.0000e-05
  Last RMS-Density change    ...    4.3107e-06  Tolerance :   1.0000e-06
  Last DIIS Error            ...    5.4924e-05  Tolerance :   1.0000e-06

             **** THE GBW FILE WAS UPDATED (XeF4_atom54.gbw) ****
             **** DENSITY XeF4_atom54.scfp WAS UPDATED ****
             **** ENERGY FILE WAS UPDATED (XeF4_atom54.en.tmp) ****
             **** THE GBW FILE WAS UPDATED (XeF4_atom54.gbw) ****
             **** DENSITY XeF4_atom54.scfp WAS UPDATED ****
----------------
ORBITAL ENERGIES
----------------

  NO   OCC          E(Eh)            E(eV) 
   0   2.0000      -8.399818      -228.5707 
   1   2.0000      -5.881575      -160.0458 
   2   2.0000      -5.881575      -160.0458 
   3   2.0000      -5.881575      -160.0458 
   4   2.0000      -2.663854       -72.4871 
   5   2.0000      -2.663854       -72.4871 
   6   2.0000      -2.663854       -72.4871 
   7   2.0000      -2.663854       -72.4871 
   8   2.0000      -2.663854       -72.4871 
   9   2.0000      -1.009353       -27.4659 
  10   2.0000      -0.708029       -19.2664 
  11   2.0000      -0.708029       -19.2664 
  12   2.0000      -0.708029       -19.2664 
  13   0.0000       0.298581         8.1248 
  14   0.0000       0.298581         8.1248 
  15   0.0000       0.298581         8.1248 
  16   0.0000       0.353058         9.6072 
  17   0.0000       0.353058         9.6072 
  18   0.0000       0.353058         9.6072 
  19   0.0000       0.353058         9.6072 
  20   0.0000       0.353058         9.6072 
  21   0.0000       0.510985        13.9046 
  22   0.0000       1.553594        42.2754 
  23   0.0000       1.553594        42.2754 
  24   0.0000       1.553594        42.2754 
  25   0.0000       1.684195        45.8293 
  26   0.0000       1.684195        45.8293 
  27   0.0000       1.684195        45.8293 
  28   0.0000       1.684195        45.8293 
  29   0.0000       1.684195        45.8293 
  30   0.0000       4.872405       132.5849 
  31   0.0000      34.650724       942.8941 
  32   0.0000      34.650724       942.8941 
  33   0.0000      34.650724       942.8941 
  34   0.0000      45.087562      1226.8949 
  35   0.0000     109.272663      2973.4603 

Warning: MO coefficients are modified such that the real solid harmonic m components
have the correct order within each shell (0, +1, -1, +2, -2, ...) and all s orbitals
come before all p orbitals etc. (with increasing orbital energy within each block of given angular momentum).

--------------------------
ATOM BASIS FOR ELEMENT Xe
--------------------------
 NewGTO Xe
 S 11
    1       6420.248165600000         0.000254883698
    2        983.545306640000         0.001650856312
    3        219.438813640000         0.004676402297
    4         23.012587807000        -0.149307969298
    5         18.048324490000         0.584331769493
    6         11.752550163000        -0.682850759499
    7          6.239091719900        -0.397793087164
    8          2.625721132000         0.846841862198
    9          1.290504294300         0.586200938497
   10          0.362041850600         0.023010244518
   11          0.140698880900        -0.003260129152
 S 11
    1       6420.248165600000         0.000116231856
    2        983.545306640000         0.000752822146
    3        219.438813640000         0.002132529153
    4         23.012587807000        -0.068087298122
    5         18.048324490000         0.266466495917
    6         11.752550163000        -0.327379606894
    7          6.239091719900        -0.190714211985
    8          2.625721132000         0.562353208746
    9          1.290504294300         0.491475150742
   10          0.362041850600        -0.811595466035
   11          0.140698880900        -0.507610716034
 S 11
    1       6420.248165600000         0.000075769377
    2        983.545306640000         0.000490750704
    3        219.438813640000         0.001390155948
    4         23.012587807000        -0.044384838686
    5         18.048324490000         0.173704534661
    6         11.752550163000        -0.221721199308
    7          6.239091719900        -0.129163157741
    8          2.625721132000         0.203222813619
    9          1.290504294300         1.074152445809
   10          0.362041850600        -2.872589249662
   11          0.140698880900         2.195246873924
 S 11
    1       6420.248165600000         0.000533892714
    2        983.545306640000         0.003457969903
    3        219.438813640000         0.009795436635
    4         23.012587807000        -0.312748275170
    5         18.048324490000         1.223971860944
    6         11.752550163000        -1.492050325102
    7          6.239091719900        -0.869190371058
    8          2.625721132000         5.755488620686
    9          1.290504294300        -5.899464739696
   10          0.362041850600         2.726467179747
   11          0.140698880900        -1.027783929515
 S 11
    1       6420.248165600000         0.002276357416
    2        983.545306640000         0.014743740117
    3        219.438813640000         0.041764785733
    4         23.012587807000        -1.333464263823
    5         18.048324490000         5.218646643554
    6         11.752550163000        -4.112694839399
    7          6.239091719900        -2.395840604949
    8          2.625721132000         4.511410074119
    9          1.290504294300        -2.833881202667
   10          0.362041850600         0.874471308079
   11          0.140698880900        -0.309456625469
 S 11
    1       6420.248165600000         0.001848739988
    2        983.545306640000         0.011974104651
    3        219.438813640000         0.033919203075
    4         23.012587807000        -1.082970841702
    5         18.048324490000         4.238315417553
    6         11.752550163000        -1.960726966664
    7          6.239091719900        -1.142216834799
    8          2.625721132000         1.396570122670
    9          1.290504294300        -0.771134351033
   10          0.362041850600         0.220886376868
   11          0.140698880900        -0.077297022166
 P 10
    1        193.814325450000        -0.000815454244
    2         21.725228086000        -0.049061011678
    3          9.889160564100         0.239129749974
    4         13.960683826000         0.043831755689
    5          4.092894709700        -0.315460442651
    6          2.254681546000        -0.624735708369
    7          1.154659618400        -0.305882523429
    8          0.523219231300         0.050503103441
    9          0.219455698000         0.122710226698
   10          0.086158996800         0.052851004049
 P 10
    1        193.814325450000        -0.000101981675
    2         21.725228086000        -0.006135628320
    3          9.889160564100         0.029905850204
    4         13.960683826000         0.009639338513
    5          4.092894709700        -0.069375044332
    6          2.254681546000        -0.137389864477
    7          1.154659618400        -0.067268699190
    8          0.523219231300         0.368639026394
    9          0.219455698000         0.570431057878
   10          0.086158996800         0.246151328577
 P 10
    1        193.814325450000        -0.000130179919
    2         21.725228086000        -0.007832148241
    3          9.889160564100         0.038174908887
    4         13.960683826000         0.009174223804
    5          4.092894709700        -0.066027578787
    6          2.254681546000        -0.130760566550
    7          1.154659618400        -0.064022868431
    8          0.523219231300        -0.037033231563
    9          0.219455698000         1.390261853433
   10          0.086158996800        -1.602732431263
 P 10
    1        193.814325450000        -0.000492796174
    2         21.725228086000        -0.029648602669
    3          9.889160564100         0.144511144409
    4         13.960683826000         0.037107438972
    5          4.092894709700        -0.267065029447
    6          2.254681546000        -0.528893762242
    7          1.154659618400        -0.258956477840
    8          0.523219231300         2.572510227399
    9          0.219455698000        -2.666687889191
   10          0.086158996800         0.982921479238
 P 10
    1        193.814325450000        -0.005334455205
    2         21.725228086000        -0.320942310588
    3          9.889160564100         1.564314551669
    4         13.960683826000         0.034228111316
    5          4.092894709700        -0.246342291729
    6          2.254681546000        -0.487854593848
    7          1.154659618400        -0.238862917924
    8          0.523219231300         0.687945677920
    9          0.219455698000        -0.462058764141
   10          0.086158996800         0.154604544316
 D 8
    1        135.603000380000         0.000818951363
    2         38.727062692000         0.006091371842
    3         15.377328089000        -0.009280746178
    4          5.260253768600         0.228968241558
    5          2.659062742400         0.444461288111
    6          1.293820512400         0.360389875342
    7          0.580508301400         0.114588702070
    8          0.180000000000         0.006360585062
 D 8
    1        135.603000380000         0.000192749284
    2         38.727062692000         0.001433671904
    3         15.377328089000        -0.002184326518
    4          5.260253768600         0.053890214442
    5          2.659062742400         0.104608892327
    6          1.293820512400         0.084821753151
    7          0.580508301400        -0.043785193394
    8          0.180000000000        -0.984094434636
 D 8
    1        135.603000380000         0.000638667877
    2         38.727062692000         0.004750420716
    3         15.377328089000        -0.007237688003
    4          5.260253768600         0.178563303342
    5          2.659062742400         0.346617833429
    6          1.293820512400         0.281053853557
    7          0.580508301400        -1.443916280716
    8          0.180000000000         0.766311489691
 end
-------------------------------------------
RADIAL EXPECTATION VALUES <R**-3> TO <R**3>
-------------------------------------------
   0 :     0.000000     2.569946     1.495302     0.734102     0.588934     0.515241
   1 :     0.000000     0.551029     0.626775     1.905108     4.104998     9.837467
   2 :     0.000000     0.330460     0.449787     2.879842     9.475282    33.675587
   3 :     0.000000     2.191273     1.091972     1.356903     2.672104     7.138449
   4 :     0.000000    22.344650     2.969856     0.491545     0.426925     0.757706
   5 :     0.000000   124.358214     8.382493     0.173202     0.054536     0.054703
   6 :     4.295529     2.338551     1.446056     0.791108     0.787634     1.190734
   7 :     4.295529     2.338551     1.446056     0.791108     0.787634     1.190734
   8 :     4.295529     2.338551     1.446056     0.791108     0.787634     1.190734
   9 :     0.195921     0.281124     0.493990     2.304630     6.039901    17.978629
  10 :     0.195921     0.281124     0.493990     2.304630     6.039901    17.978629
  11 :     0.195921     0.281124     0.493990     2.304630     6.039901    17.978629
  12 :     0.127719     0.130181     0.286606     4.272132    20.112103   100.393931
  13 :     0.127719     0.130181     0.286606     4.272132    20.112103   100.393931
  14 :     0.127719     0.130181     0.286606     4.272132    20.112103   100.393931
  15 :     0.962885     0.610264     0.611559     2.448028     8.065436    32.967437
  16 :     0.962885     0.610264     0.611559     2.448028     8.065436    32.967437
  17 :     0.962885     0.610264     0.611559     2.448028     8.065436    32.967437
  18 :    45.313148    10.629576     2.980973     0.452253     0.402988     0.941133
  19 :    45.313148    10.629576     2.980973     0.452253     0.402988     0.941133
  20 :    45.313148    10.629576     2.980973     0.452253     0.402988     0.941133
  21 :     3.660287     2.008102     1.313632     0.875382     0.875445     4.980520
  22 :     3.660287     2.008102     1.313632     0.875382     0.875445     4.980520
  23 :     3.660287     2.008102     1.313632     0.875382     0.875445     4.980520
  24 :     3.660287     2.008102     1.313632     0.875382     0.875445     4.980520
  25 :     3.660287     2.008102     1.313632     0.875382     0.875445     4.980520
  26 :     0.197880     0.201166     0.384434     2.970032     9.555123   163.787848
  27 :     0.197880     0.201166     0.384434     2.970032     9.555123   163.787848
  28 :     0.197880     0.201166     0.384434     2.970032     9.555123   163.787848
  29 :     0.197880     0.201166     0.384434     2.970032     9.555123   163.787848
  30 :     0.197880     0.201166     0.384434     2.970032     9.555123   163.787848
  31 :     1.314557     0.765812     0.698588     2.026128     5.287829    83.117216
  32 :     1.314557     0.765812     0.698588     2.026128     5.287829    83.117216
  33 :     1.314557     0.765812     0.698588     2.026128     5.287829    83.117216
  34 :     1.314557     0.765812     0.698588     2.026128     5.287829    83.117216
  35 :     1.314557     0.765812     0.698588     2.026128     5.287829    83.117216
Making the total density                ... o.k.
o.k.
Initializing the integrals              ... done
Making exponents                        ... done
Making rho(0)                           ... done (         0.882088767)
Integral calculation                    ... Two index integrals                     ... done
Solving the equation system             ... done
atomic density will be written to file XeF4_atom54.adf

-------
TIMINGS
-------

Total SCF time: 0 days 0 hours 0 min 0 sec 

Total time                  ....       0.685 sec
Sum of individual times     ....       0.243 sec  ( 35.5%)

Fock matrix formation       ....       0.107 sec  ( 15.6%)
Diagonalization             ....       0.022 sec  (  3.2%)
Density matrix formation    ....       0.002 sec  (  0.3%)
Population analysis         ....       0.000 sec  (  0.0%)
Initial guess               ....       0.000 sec  (  0.0%)
Orbital Transformation      ....       0.000 sec  (  0.0%)
Orbital Orthonormalization  ....       0.000 sec  (  0.0%)
DIIS solution               ....       0.112 sec  ( 16.4%)

Maximum memory used throughout the entire SCF-calculation: 229.4 MB

-------------------------   --------------------
FINAL SINGLE POINT ENERGY      -328.298393667059
-------------------------   --------------------


                            ***************************************
                            *     ORCA property calculations      *
                            ***************************************

                                    ---------------------
                                    Active property flags
                                    ---------------------
   (+) Dipole Moment


------------------------------------------------------------------------------
                       ORCA ELECTRIC PROPERTIES CALCULATION
------------------------------------------------------------------------------

Dipole Moment Calculation                       ... on
Quadrupole Moment Calculation                   ... off
Polarizability Calculation                      ... off
GBWName                                         ... XeF4_atom54.gbw
Electron density                                ... XeF4_atom54.scfp
The origin for moment calculation is the CENTER OF MASS  = ( 0.000000,  0.000000  0.000000)

-------------
DIPOLE MOMENT
-------------
                                X             Y             Z
Electronic contribution:      0.00000      -0.00000       0.00000
Nuclear contribution   :      0.00000       0.00000       0.00000
                        -----------------------------------------
Total Dipole Moment    :      0.00000      -0.00000       0.00000
                        -----------------------------------------
Magnitude (a.u.)       :      0.00000
Magnitude (Debye)      :      0.00000



--------------------
Rotational spectrum 
--------------------
 
Rotational constants in cm-1:     0.000000     0.000000     0.000000 
Rotational constants in MHz :     0.000000     0.000000     0.000000 

 Dipole components along the rotational axes: 
x,y,z [a.u.] :     0.000000    -0.000000     0.000000 
x,y,z [Debye]:     0.000000    -0.000000     0.000000 

 

Timings for individual modules:

Sum of individual times         ...        3.883 sec (=   0.065 min)
GTO integral calculation        ...        3.159 sec (=   0.053 min)  81.4 %
SCF iterations                  ...        0.724 sec (=   0.012 min)  18.6 %
                             ****ORCA TERMINATED NORMALLY****
TOTAL RUN TIME: 0 days 0 hours 0 minutes 4 seconds 136 msec
