[Molden Format]
[Title]
 Molden file created by orca_2mkl for BaseName=h2o

[Atoms] AU
O    1   8          1.7808288820        -0.0149511049        -0.1273192575 
H    2   1          3.5962655930        -0.0279424215        -0.2381061613 
H    3   1          1.2808453318        -0.2188146459        -1.8641868575 
[GTO]
  1 0
s   5 1.0 
     2266.1767785000        -1.2615859742
      340.8701019100        -2.2748500410
       77.3631351670        -3.3479623295
       21.4796449400        -3.3299980531
        6.6589433124        -1.3203828288
s   1 1.0 
        0.8097597567         0.6083832301
s   1 1.0 
        0.2553077223         0.2559811911
p   3 1.0 
       17.7215043170         3.2460107647
        3.8635505440         2.5734959178
        1.0480920883         1.1208372892
p   1 1.0 
        0.2764154441         0.2856886381
d   1 1.0 
        1.2000000000         3.9222679946

  2 0
s   3 1.0 
       13.0107010000         0.1634903809
        1.9622572000         0.2773515510
        0.4445379600         0.3157501452
s   1 1.0 
        0.1219496200         0.1470772262
p   1 1.0 
        0.8000000000         1.0784563492

  3 0
s   3 1.0 
       13.0107010000         0.1634903809
        1.9622572000         0.2773515510
        0.4445379600         0.3157501452
s   1 1.0 
        0.1219496200         0.1470772262
p   1 1.0 
        0.8000000000         1.0784563492

[5D]
[7F]
[9G]
[MO]
 Sym=     1a
 Ene= -2.05477092060299E+01
 Spin= Alpha
 Occup= 2.000000
  1       0.990350599747
  2      -0.033218356575
  3       0.010427703122
  4      -0.001606038418
  5       0.000264758373
  6       0.002255803733
  7       0.000112435809
  8      -0.000018535249
  9      -0.000157924684
 10      -0.000293731571
 11      -0.000264901362
 12      -0.000145577710
 13      -0.000714446732
 14      -0.000031101657
 15       0.001707937086
 16      -0.001750887061
 17      -0.002415581271
 18       0.000019399987
 19       0.000165421904
 20       0.001707937109
 21      -0.001750887067
 22       0.000648169734
 23       0.000271961038
 24       0.002317042707
 Sym=     1a
 Ene= -1.31797302122024E+00
 Spin= Alpha
 Occup= 2.000000
  1      -0.278371874839
  2      -0.550969875776
  3      -0.289892842025
  4      -0.049566336796
  5       0.008171101246
  6       0.069619708999
  7       0.002882981916
  8      -0.000475264801
  9      -0.004049368134
 10      -0.001936452206
 11      -0.000162645764
 12      -0.000823627755
 13      -0.003566507167
 14      -0.000019137917
 15      -0.193401944980
 16      -0.006277765801
 17       0.036157747977
 18       0.000456814409
 19       0.003889973554
 20      -0.193401945093
 21      -0.006277765947
 22      -0.015745372650
 23      -0.003821831797
 24      -0.032560714954
 Sym=     1a
 Ene= -6.96902072999217E-01
 Spin= Alpha
 Occup= 2.000000
  1       0.000000000277
  2       0.000000000872
  3       0.000000000751
  4       0.401563978221
  5       0.033103022919
  6       0.282011626220
  7       0.188821494108
  8       0.015565545215
  9       0.132606159010
 10      -0.021178374516
 11      -0.008705482659
 12      -0.002870360926
 13       0.012564247989
 14      -0.001021619072
 15       0.324751110643
 16       0.086950091978
 17      -0.034854155719
 18       0.001524233389
 19       0.012988270311
 20      -0.324751110654
 21      -0.086950092966
 22       0.000711344050
 23      -0.004338804245
 24      -0.036966192473
 Sym=     1a
 Ene= -5.71403689149869E-01
 Spin= Alpha
 Occup= 2.000000
  1      -0.097556307630
  2      -0.202674874407
  3      -0.336112686892
  4       0.314210542788
  5      -0.051798181855
  6      -0.441332722629
  7       0.205270306891
  8      -0.033839185079
  9      -0.288317835399
 10       0.009802961575
 11      -0.012902861082
 12       0.002989844728
 13       0.008143744443
 14      -0.001514329149
 15       0.206966009207
 16       0.054001159660
 17      -0.021674953948
 18      -0.002682531508
 19      -0.022853663293
 20       0.206966008730
 21       0.054001160742
 22       0.028919582622
 23       0.001488241246
 24       0.012678028536
 Sym=     1a
 Ene= -4.98481226695068E-01
 Spin= Alpha
 Occup= 2.000000
  1       0.000000000092
  2       0.000000000206
  3       0.000000000448
  4      -0.000004156312
  5       0.628637430532
  6      -0.073784653629
  7      -0.000003263123
  8       0.493543479982
  9      -0.057928358908
 10       0.003037298667
 11      -0.001248380931
 12      -0.014734545893
 13       0.001753444541
 14       0.010636926457
 15      -0.000000000296
 16      -0.000000000465
 17      -0.000000190134
 18       0.028757864009
 19      -0.003375378124
 20      -0.000000000091
 21      -0.000000000103
 22      -0.000000190143
 23       0.028757864047
 24      -0.003375378139
 Sym=     1a
 Ene= 1.74992700073643E-01
 Spin= Alpha
 Occup= 0.000000
  1      -0.086341966900
  2      -0.087715436535
  3      -1.092119179850
  4      -0.110380108466
  5       0.018196362722
  6       0.155037297833
  7      -0.216689566353
  8       0.035721670943
  9       0.304357055118
 10      -0.006798283031
 11       0.002631637902
 12      -0.002616267115
 13      -0.010208419749
 14       0.000308744515
 15       0.065797793491
 16       0.893328540873
 17      -0.019273411931
 18       0.000099893054
 19       0.000852163838
 20       0.065797792619
 21       0.893328534402
 22       0.005615589865
 23       0.002151623884
 24       0.018331291056
 Sym=     1a
 Ene= 2.54744318908386E-01
 Spin= Alpha
 Occup= 0.000000
  1       0.000000000197
  2       0.000000000116
  3       0.000000004269
  4      -0.232805997922
  5      -0.019191418265
  6      -0.163495736671
  7      -0.535769162989
  8      -0.044166259521
  9      -0.376261671546
 10       0.014838972253
 11       0.006099637852
 12       0.002011165030
 13      -0.008803344434
 14       0.000715813995
 15       0.028607515189
 16       1.432560546454
 17      -0.018528509073
 18       0.000116989284
 19       0.000997779979
 20      -0.028607514974
 21      -1.432560552645
 22      -0.005229056127
 23      -0.002075449883
 24      -0.017682318552
 Sym=     1a
 Ene= 7.83687816965073E-01
 Spin= Alpha
 Occup= 0.000000
  1       0.000000000997
  2       0.000000003751
  3      -0.000000004812
  4       0.216779962281
  5       0.017870307716
  6       0.152240916866
  7       0.415899879026
  8       0.034284806245
  9       0.292079488761
 10       0.086460794917
 11       0.035540165731
 12       0.011718259323
 13      -0.051293591286
 14       0.004170763672
 15      -0.969627414390
 16       0.679567373793
 17      -0.113498304343
 18       0.007709719310
 19       0.065692384818
 20       0.969627399976
 21      -0.679567362263
 22       0.024527348985
 23      -0.015044061235
 24      -0.128175189004
 Sym=     1a
 Ene= 8.72517568840768E-01
 Spin= Alpha
 Occup= 0.000000
  1      -0.117071801972
  2      -0.424194499390
  3       0.444226407719
  4      -0.199301786935
  5       0.032855264252
  6       0.279934596085
  7      -0.018595005717
  8       0.003065422109
  9       0.026118118020
 10       0.030420413306
 11       0.044763277295
 12       0.016566032016
 13       0.086504185358
 14       0.005255127849
 15       0.817923624608
 16      -0.576829737628
 17       0.236216545894
 18       0.010464810168
 19       0.089145767537
 20       0.817923642022
 21      -0.576829746815
 22      -0.163363908669
 23      -0.022474700786
 24      -0.191472866687
 Sym=     1a
 Ene= 1.18526764883012E+00
 Spin= Alpha
 Occup= 0.000000
  1       0.140160548515
  2       0.617131205128
  3      -0.090849931930
  4      -0.451587879027
  5       0.074445086658
  6       0.634289695264
  7       0.676304959409
  8      -0.111490108429
  9      -0.949922014204
 10       0.000516896757
 11      -0.008020857758
 12      -0.000473192516
 13      -0.004870843790
 14      -0.000941491714
 15      -0.386259899777
 16      -0.009864649770
 17       0.131593806090
 18      -0.009190430210
 19      -0.078308904161
 20      -0.386259901786
 21      -0.009864653765
 22       0.030472065372
 23      -0.017526425213
 24      -0.149325001952
 Sym=     1a
 Ene= 1.20139822301071E+00
 Spin= Alpha
 Occup= 0.000000
  1      -0.000000000148
  2      -0.000000000681
  3       0.000000000155
  4       0.000006352809
  5      -0.960800166887
  6       0.112771374579
  7      -0.000006770315
  8       1.023942387822
  9      -0.120182525175
 10      -0.000638443321
 11       0.000262410955
 12       0.003097216760
 13      -0.000368575853
 14      -0.002235892849
 15       0.000000000293
 16      -0.000000000105
 17      -0.000000023635
 18       0.003557173364
 19      -0.000417513731
 20       0.000000000431
 21       0.000000000139
 22      -0.000000023515
 23       0.003557171932
 24      -0.000417513428
 Sym=     1a
 Ene= 1.27147145791988E+00
 Spin= Alpha
 Occup= 0.000000
  1       0.000000000745
  2       0.000000003445
  3      -0.000000006221
  4      -0.632594848609
  5      -0.052148107642
  6      -0.444260718173
  7       1.399793652048
  8       0.115392325038
  9       0.983051531506
 10      -0.036411864892
 11      -0.014967289195
 12      -0.004934996052
 13       0.021601643438
 14      -0.001756464121
 15      -0.331396202928
 16      -0.798357251888
 17       0.308317658820
 18       0.000199729046
 19       0.001684302788
 20       0.331396202682
 21       0.798357254854
 22       0.104372410768
 23       0.033820475940
 24       0.288140991532
 Sym=     1a
 Ene= 1.34474998089605E+00
 Spin= Alpha
 Occup= 0.000000
  1      -0.239123069956
  2      -1.507369734318
  3       2.738971924101
  4      -0.056904568439
  5       0.009380821849
  6       0.079926812991
  7       0.368175012376
  8      -0.060694323338
  9      -0.517129941817
 10       0.008113877439
 11      -0.057073195327
 12      -0.001512374737
 13      -0.026758150271
 14      -0.006699170172
 15      -0.544607982232
 16      -0.483916003177
 17       0.169165427162
 18      -0.033901996310
 19      -0.288850944719
 20      -0.544607982096
 21      -0.483916003149
 22       0.217811452188
 23      -0.029891849435
 24      -0.254687658619
 Sym=     1a
 Ene= 1.60318095174647E+00
 Spin= Alpha
 Occup= 0.000000
  1       0.000000000003
  2       0.000000000028
  3      -0.000000000078
  4       0.000000000010
  5       0.000000001465
  6      -0.000000000174
  7      -0.000000000038
  8      -0.000000001438
  9       0.000000000219
 10      -0.019171132123
 11      -0.015761300516
 12       0.093002856496
 13      -0.011070233884
 14       0.134279224801
 15       0.000000000048
 16       0.000000000011
 17      -0.000004408433
 18       0.666774957084
 19      -0.078260944978
 20       0.000000000037
 21       0.000000000004
 22       0.000004408462
 23      -0.666774955234
 24       0.078260944720
 Sym=     1a
 Ene= 1.63706302982612E+00
 Spin= Alpha
 Occup= 0.000000
  1      -0.087401180213
  2      -0.721944441032
  3       1.739687540731
  4      -0.042889662484
  5       0.007070439225
  6       0.060241808793
  7       0.690860082395
  8      -0.113889547534
  9      -0.970365791481
 10      -0.093842794494
 11       0.134399173847
 12      -0.027686349627
 13      -0.070102339783
 14       0.015773798686
 15      -0.766107193757
 16      -0.183771918999
 17       0.126648326894
 18       0.070514646420
 19       0.600770180241
 20      -0.766107195610
 21      -0.183771920285
 22      -0.612515717362
 23       0.009581481014
 24       0.081667706107
 Sym=     1a
 Ene= 1.79601739031000E+00
 Spin= Alpha
 Occup= 0.000000
  1      -0.000000000003
  2      -0.000000000021
  3       0.000000000036
  4       0.000000154536
  5      -0.023372320197
  6       0.002743264188
  7       0.000003674524
  8      -0.555771316081
  9       0.065232186508
 10       0.032542792987
 11      -0.013375636439
 12      -0.157871625542
 13       0.018787083275
 14       0.113968146266
 15      -0.000000000005
 16      -0.000000000001
 17      -0.000004837359
 18       0.731651220162
 19      -0.085875624524
 20      -0.000000000013
 21      -0.000000000005
 22      -0.000004837363
 23       0.731651222045
 24      -0.085875624752
 Sym=     1a
 Ene= 2.06839394765150E+00
 Spin= Alpha
 Occup= 0.000000
  1       0.000000000112
  2       0.000000000701
  3       0.000000000216
  4      -0.009046755362
  5      -0.000745771386
  6      -0.006353383586
  7      -0.634914576877
  8      -0.052339335414
  9      -0.445889826329
 10      -0.021603065908
 11      -0.008880054459
 12      -0.002927920459
 13       0.012816199748
 14      -0.001042105679
 15       0.330531506153
 16       0.077105158073
 17      -0.007030304235
 18       0.095450456151
 19       0.813228166916
 20      -0.330531506630
 21      -0.077105158246
 22       0.769637897229
 23      -0.032584716408
 24      -0.277661684154
 Sym=     1a
 Ene= 2.54575265127864E+00
 Spin= Alpha
 Occup= 0.000000
  1       0.000000005994
  2       0.000000027972
  3       0.000000026038
  4       0.636597082122
  5       0.052478029712
  6       0.447071392386
  7       0.063045391389
  8       0.005197160827
  9       0.044275708123
 10       0.133203664557
 11       0.054754068825
 12       0.018053442281
 13      -0.079024201497
 14       0.006425582894
 15      -0.215654954274
 16      -0.291731541992
 17       0.856075872448
 18      -0.003707762848
 19      -0.031637969168
 20       0.215654922709
 21       0.291731527368
 22       0.255328036478
 23       0.095326604961
 24       0.812158189290
 Sym=     1a
 Ene= 2.59429008013104E+00
 Spin= Alpha
 Occup= 0.000000
  1      -0.155976003067
  2      -0.783718565958
  3      -0.621700806971
  4      -0.364342462303
  5       0.060062527289
  6       0.511746890511
  7      -0.103239440276
  8       0.017019210944
  9       0.145007689062
 10       0.117632476802
 11       0.062142357660
 12       0.054523821705
 13       0.254388618372
 14       0.007297200806
 15       0.410120892043
 16       0.178071868477
 17      -0.866264407454
 18       0.002501410393
 19       0.021360548018
 20       0.410120911066
 21       0.178071890776
 22       0.268480441570
 23       0.096044380035
 24       0.818272815962
 Sym=     1a
 Ene= 3.33361214523541E+00
 Spin= Alpha
 Occup= 0.000000
  1       0.000000000000
  2      -0.000000000000
  3      -0.000000000001
  4      -0.000000074185
  5       0.011219704818
  6      -0.001316883135
  7       0.000001943929
  8      -0.294019150897
  9       0.034509719263
 10      -0.169130375291
 11       0.069515438410
 12       0.820485423181
 13      -0.097639635492
 14      -0.592311677309
 15      -0.000000000003
 16       0.000000000001
 17      -0.000002686220
 18       0.406290288069
 19      -0.047687246685
 20       0.000000000001
 21       0.000000000001
 22      -0.000002686218
 23       0.406290272464
 24      -0.047687244853
 Sym=     1a
 Ene= 3.37158028115429E+00
 Spin= Alpha
 Occup= 0.000000
  1      -0.000000000000
  2      -0.000000000002
  3       0.000000000004
  4       0.000000000007
  5      -0.000000000055
  6       0.000000000010
  7      -0.000000000001
  8      -0.000000007027
  9       0.000000000819
 10      -0.122012685437
 11      -0.100311160092
 12       0.591907050585
 13      -0.070455357369
 14       0.854606179688
 15       0.000000000004
 16       0.000000000001
 17       0.000002475042
 18      -0.374349847244
 19       0.043938322033
 20      -0.000000000007
 21      -0.000000000002
 22      -0.000002475043
 23       0.374349866548
 24      -0.043938324294
 Sym=     1a
 Ene= 3.57220491836571E+00
 Spin= Alpha
 Occup= 0.000000
  1       0.003063196761
  2       0.093397308584
  3      -0.435125447236
  4      -0.000277241583
  5       0.000045703734
  6       0.000389406559
  7      -0.284822506623
  8       0.046953510582
  9       0.400054978216
 10      -0.449643461980
 11       0.978237848795
 12      -0.103930700650
 13      -0.094530506326
 14       0.114816746458
 15       0.254323686351
 16       0.042919132551
 17      -0.086313731473
 18      -0.054722633755
 19      -0.466226178243
 20       0.254323685477
 21       0.042919132179
 22       0.471350775793
 23      -0.008751426638
 24      -0.074587778702
 Sym=     1a
 Ene= 3.88155418275747E+00
 Spin= Alpha
 Occup= 0.000000
  1      -0.078250659873
  2      -0.157302558203
  3      -1.904613208019
  4      -0.230556995017
  5       0.038007742166
  6       0.323834922480
  7      -0.538407353421
  8       0.088757435953
  9       0.756234276486
 10      -0.413180038668
 11      -0.349179691857
 12      -0.202763183867
 13      -0.988053286645
 14      -0.040997264203
 15       1.166398859377
 16       0.224379276240
 17      -0.782166838427
 18       0.004574765487
 19       0.039020576480
 20       1.166398858615
 21       0.224379275391
 22       0.223683314021
 23       0.087492263827
 24       0.745412215620
 Sym=     1a
 Ene= 4.24025911651886E+00
 Spin= Alpha
 Occup= 0.000000
  1       0.000000000532
  2       0.000000003389
  3       0.000000008286
  4      -0.395611265613
  5      -0.032612309947
  6      -0.277831139885
  7      -0.877925621544
  8      -0.072372009773
  9      -0.616552400081
 10       1.079026029339
 11       0.443539343047
 12       0.146243242228
 13      -0.640141222029
 14       0.052050904692
 15       1.050529069951
 16       0.252266660141
 17      -0.795965990621
 18       0.008622112070
 19       0.073504317733
 20      -1.050529082790
 21      -0.252266661706
 22      -0.195548347681
 23      -0.090357834870
 24      -0.769828162052
