[Molden Format]
[Title]
 Molden file created by orca_2mkl for BaseName=XeF4

[Atoms] AU
F    1   9          2.0404884849        -0.8081224839         0.9315404977 
Xe   2  54          5.5032604472        -0.0669718942         0.1388948708 
F    3   9          5.6722964499         3.0009795870        -1.7917627311 
F    4   9          7.3889992590         0.3331398201         3.2133659072 
F    5   9          6.9112575951        -2.7939033972        -1.7975263958 
[GTO]
  1 0
s   5 1.0 
     2894.8325990000        -1.5046183743
      435.4193912000        -2.7151913889
       98.8433288660        -4.0084234848
       27.4851980010        -4.0066489820
        8.5405498171        -1.5924531440
s   1 1.0 
        1.0654578038         0.7474158152
s   1 1.0 
        0.3324734675         0.3120526226
p   3 1.0 
       22.6966339240        -4.5745381020
        4.9872339257        -3.6157678437
        1.3491613954        -1.5230827082
p   1 1.0 
        0.3482988198         0.3813994755
d   1 1.0 
        1.4000000000         5.1368176128

  2 0
s   5 1.0 
     6420.2481656000         0.2966758111
      983.5453066400         0.4705234334
      219.4388136400         0.4326863111
       23.0125878070        -2.5458527906
       18.0483244900         8.3035417190
s   2 1.0 
       11.7525501630         2.9072100937
        6.2390917199         1.0532944484
s   1 1.0 
        2.6257211320         1.4700988633
s   1 1.0 
        1.2905042943         0.8629381767
s   1 1.0 
        0.3620418506         0.3326436017
s   1 1.0 
        0.1406988809         0.1637299294
p   3 1.0 
      193.8143254500         4.1955793634
       21.7252280860        16.3720071982
        9.8891605641       -29.8361575466
p   4 1.0 
       13.9606838260        -1.4525932490
        4.0928947097         2.2553030860
        2.2546815460         2.1197011371
        1.1546596184         0.4496182454
p   1 1.0 
        0.5232192313         0.6342999993
p   1 1.0 
        0.2194556980         0.2141034496
p   1 1.0 
        0.0861589968         0.0665374082
d   6 1.0 
      135.6030003800        13.4667300361
       38.7270626920        11.1756644137
       15.3773280890        -3.3818722521
        5.2602537686        12.7664376390
        2.6590627424         7.5100309207
        1.2938205124         1.7261753038
d   1 1.0 
        0.5805083014         1.1006135219
d   1 1.0 
        0.1800000000         0.1418067708
f   1 1.0 
        0.4965279300         1.1799765204
f   1 1.0 
        2.5000000000        44.8089841971

  3 0
s   5 1.0 
     2894.8325990000        -1.5046183743
      435.4193912000        -2.7151913889
       98.8433288660        -4.0084234848
       27.4851980010        -4.0066489820
        8.5405498171        -1.5924531440
s   1 1.0 
        1.0654578038         0.7474158152
s   1 1.0 
        0.3324734675         0.3120526226
p   3 1.0 
       22.6966339240        -4.5745381020
        4.9872339257        -3.6157678437
        1.3491613954        -1.5230827082
p   1 1.0 
        0.3482988198         0.3813994755
d   1 1.0 
        1.4000000000         5.1368176128

  4 0
s   5 1.0 
     2894.8325990000        -1.5046183743
      435.4193912000        -2.7151913889
       98.8433288660        -4.0084234848
       27.4851980010        -4.0066489820
        8.5405498171        -1.5924531440
s   1 1.0 
        1.0654578038         0.7474158152
s   1 1.0 
        0.3324734675         0.3120526226
p   3 1.0 
       22.6966339240        -4.5745381020
        4.9872339257        -3.6157678437
        1.3491613954        -1.5230827082
p   1 1.0 
        0.3482988198         0.3813994755
d   1 1.0 
        1.4000000000         5.1368176128

  5 0
s   5 1.0 
     2894.8325990000        -1.5046183743
      435.4193912000        -2.7151913889
       98.8433288660        -4.0084234848
       27.4851980010        -4.0066489820
        8.5405498171        -1.5924531440
s   1 1.0 
        1.0654578038         0.7474158152
s   1 1.0 
        0.3324734675         0.3120526226
p   3 1.0 
       22.6966339240        -4.5745381020
        4.9872339257        -3.6157678437
        1.3491613954        -1.5230827082
p   1 1.0 
        0.3482988198         0.3813994755
d   1 1.0 
        1.4000000000         5.1368176128

[5D]
[7F]
[9G]
[MO]
 Sym=     1a
 Ene= -2.75463640590817E+01
 Spin= Alpha
 Occup= 2.000000
  1      -0.159457022165
  2       0.005437952977
  3      -0.002991370513
  4      -0.000212241852
  5      -0.000052732187
  6       0.000132514047
  7      -0.000707149999
  8      -0.000164719211
  9       0.000315464258
 10       0.000132939300
 11       0.000038660158
 12       0.000013340996
 13      -0.000089811599
 14      -0.000035835479
 15       0.000001705434
 16      -0.000003655264
 17       0.000006498208
 18      -0.000013390945
 19       0.000172044161
 20      -0.000355609352
 21      -0.000004387673
 22      -0.000000033691
 23      -0.000009399194
 24      -0.000023102249
 25      -0.000000177624
 26      -0.000049489244
 27       0.000702259420
 28       0.000005367776
 29       0.001504391845
 30      -0.002039483173
 31      -0.000015575257
 32      -0.004369051429
 33      -0.001439807636
 34      -0.000011005922
 35      -0.003084373437
 36       0.000053610193
 37       0.000072078767
 38       0.000023230406
 39       0.000034764107
 40       0.000011943277
 41      -0.000078732846
 42      -0.000105858729
 43      -0.000034119188
 44      -0.000051059296
 45      -0.000017542323
 46      -0.002659093923
 47      -0.003575089833
 48      -0.001152223212
 49      -0.001724302499
 50      -0.000592365199
 51       0.000012841907
 52      -0.000921646502
 53      -0.000158502966
 54       0.000140160575
 55      -0.000008915326
 56       0.000513614734
 57       0.000451112794
 58      -0.000002019125
 59       0.000116777082
 60       0.000020057717
 61      -0.000018807362
 62       0.000000712113
 63      -0.000065959401
 64      -0.000057859770
 65      -0.376546286368
 66       0.012824345148
 67      -0.006989451254
 68       0.000063931220
 69       0.000518062553
 70      -0.000250021739
 71       0.000152893882
 72       0.001599772509
 73      -0.000867666821
 74       0.000019168913
 75       0.000058046588
 76       0.000297240454
 77       0.000200603225
 78       0.000021073959
 79       0.864089928947
 80      -0.029387847566
 81       0.015858859090
 82      -0.000694474484
 83      -0.000154607702
 84      -0.001114137264
 85      -0.002167561736
 86      -0.000473164169
 87      -0.003500791868
 88       0.000479021938
 89       0.000619926257
 90       0.000132253229
 91       0.000191244641
 92       0.000077940441
 93      -0.258430435417
 94       0.008805489607
 95      -0.004814139280
 96       0.000198526633
 97      -0.000315663245
 98      -0.000148516989
 99       0.000570183015
100      -0.000978331599
101      -0.000556313243
102       0.000005320273
103       0.000139069002
104      -0.000167009913
105       0.000110663429
106       0.000078620242
 Sym=     1a
 Ene= -2.75463615996921E+01
 Spin= Alpha
 Occup= 2.000000
  1       0.137203821715
  2      -0.004673521480
  3       0.002549654683
  4       0.000215861355
  5      -0.000038089152
  6      -0.000049754952
  7       0.000663715967
  8      -0.000012195719
  9      -0.000152559296
 10      -0.000059190863
 11      -0.000058707621
 12       0.000048236495
 13       0.000077477997
 14       0.000086740184
 15      -0.000000710234
 16       0.000001522256
 17      -0.000002703286
 18       0.000005570945
 19      -0.000071723592
 20       0.000148289549
 21      -0.000000358937
 22       0.000010370969
 23       0.000000124558
 24      -0.000001889871
 25       0.000054605202
 26       0.000000655666
 27       0.000057458340
 28      -0.001659986169
 29      -0.000019948870
 30      -0.000166882545
 31       0.004821007282
 32       0.000057931766
 33      -0.000117802482
 34       0.003403371756
 35       0.000040903711
 36      -0.000009307180
 37      -0.000028413029
 38       0.000086705292
 39       0.000025754957
 40      -0.000029929087
 41       0.000013668805
 42       0.000041733208
 43      -0.000127357955
 44      -0.000037829967
 45       0.000043962087
 46       0.000461655032
 47       0.001409260738
 48      -0.004300532607
 49      -0.001277429655
 50       0.001484458145
 51       0.000143554965
 52      -0.000066361195
 53       0.000437899500
 54       0.000363294087
 55      -0.000703339587
 56      -0.000528417065
 57       0.000488058083
 58      -0.000018133386
 59       0.000008735962
 60      -0.000055742858
 61      -0.000045899182
 62       0.000089803279
 63       0.000067548445
 64      -0.000062036808
 65      -0.724889139342
 66       0.024658917311
 67      -0.013327290395
 68       0.000057797228
 69       0.000912596326
 70      -0.000627959191
 71       0.000173443026
 72       0.002898594595
 73      -0.001922271961
 74       0.000073569418
 75      -0.000002698949
 76       0.000535737799
 77       0.000423733888
 78      -0.000063599212
 79      -0.095059415937
 80       0.003229154123
 81      -0.001727854934
 82       0.000083146941
 83      -0.000066641456
 84       0.000129832450
 85       0.000248701827
 86      -0.000101472233
 87       0.000394992649
 88      -0.000045865272
 89      -0.000077003441
 90      -0.000008078307
 91       0.000016543123
 92      -0.000075366163
 93       0.653701578841
 94      -0.022247193036
 95       0.012061864900
 96      -0.000409516257
 97       0.000715060166
 98       0.000566170951
 99      -0.001261912236
100       0.002301151728
101       0.001740945859
102      -0.000079038698
103      -0.000198881787
104       0.000453417290
105      -0.000212014533
106      -0.000303109321
 Sym=     1a
 Ene= -2.75463599659771E+01
 Spin= Alpha
 Occup= 2.000000
  1      -0.813409916022
  2       0.027685097320
  3      -0.015020207936
  4      -0.001186337990
  5      -0.000267119213
  6       0.000253437354
  7      -0.003742006754
  8      -0.000825074787
  9       0.000823403435
 10       0.000315925772
 11       0.000280446036
 12       0.000069591011
 13      -0.000590407608
 14      -0.000256725792
 15       0.000001242074
 16      -0.000002662075
 17       0.000004725249
 18      -0.000009737907
 19       0.000125473099
 20      -0.000259445334
 21      -0.000009391157
 22      -0.000000374011
 23       0.000004395312
 24      -0.000049446556
 25      -0.000001969223
 26       0.000023142087
 27       0.001503143018
 28       0.000059861355
 29      -0.000703542089
 30      -0.004365468353
 31      -0.000173845867
 32       0.002043267990
 33      -0.003081810281
 34      -0.000122730478
 35       0.001442431735
 36       0.000031209308
 37       0.000016904691
 38       0.000018199048
 39      -0.000080903759
 40      -0.000042777898
 41      -0.000045839567
 42      -0.000024825579
 43      -0.000026731513
 44       0.000118833110
 45       0.000062832526
 46      -0.001547940748
 47      -0.000838495593
 48      -0.000902650470
 49       0.004012775258
 50       0.002121777952
 51      -0.000897510207
 52       0.000342689521
 53       0.000146879196
 54      -0.000220472509
 55      -0.000234463084
 56       0.000377499017
 57       0.000413078159
 58       0.000114089919
 59      -0.000044158129
 60      -0.000018819597
 61       0.000027402827
 62       0.000029567809
 63      -0.000048476819
 64      -0.000052911803
 65       0.268207094468
 66      -0.009116552825
 67       0.004899592395
 68       0.000055458066
 69      -0.000365465425
 70       0.000196427382
 71       0.000076796157
 72      -0.001116947461
 73       0.000641481608
 74       0.000029544737
 75      -0.000035788825
 76      -0.000172265889
 77      -0.000191895476
 78       0.000040853386
 79       0.111638114882
 80      -0.003789340708
 81       0.002016088743
 82      -0.000018447253
 83      -0.000016975219
 84      -0.000189064545
 85      -0.000145493744
 86      -0.000054771339
 87      -0.000528163640
 88       0.000018602774
 89       0.000124631199
 90       0.000027937432
 91      -0.000011240814
 92      -0.000018162841
 93       0.484373260296
 94      -0.016471533250
 95       0.008880660569
 96      -0.000229708452
 97       0.000594639258
 98       0.000384649542
 99      -0.000794799780
100       0.001813382650
101       0.001218887305
102       0.000006419735
103      -0.000168606256
104       0.000290781332
105      -0.000166905712
106      -0.000273814337
 Sym=     1a
 Ene= -2.75463180208931E+01
 Spin= Alpha
 Occup= 2.000000
  1       0.524209660024
  2      -0.017481509781
  3       0.008100315482
  4       0.000802750433
  5       0.000171175466
  6      -0.000186247105
  7       0.002118392161
  8       0.000452231210
  9      -0.000489476254
 10      -0.000213927053
 11      -0.000178175413
 12      -0.000037667831
 13       0.000371182487
 14       0.000166920568
 15       0.000048385126
 16      -0.000103701060
 17       0.000184135498
 18      -0.000379476405
 19       0.004886413809
 20      -0.010102972666
 21       0.000000390275
 22       0.000000163035
 23       0.000000219576
 24       0.000002054816
 25       0.000000858428
 26       0.000001155667
 27      -0.000062480176
 28      -0.000026096888
 29      -0.000035185013
 30       0.000181466440
 31       0.000075793115
 32       0.000102228478
 33       0.000128100233
 34       0.000053505246
 35       0.000072137859
 36      -0.000002826041
 37      -0.000003389344
 38      -0.000000012758
 39       0.000001230999
 40       0.000000238654
 41       0.000004155210
 42       0.000004985028
 43       0.000000020610
 44      -0.000001802759
 45      -0.000000348306
 46       0.000140160273
 47       0.000168084280
 48       0.000000622754
 49      -0.000061071477
 50      -0.000011838234
 51      -0.000371240751
 52      -0.000669623404
 53      -0.000137125176
 54      -0.000972602883
 55      -0.000442175553
 56      -0.000561223295
 57      -0.000405730365
 58       0.000036410003
 59       0.000066277900
 60       0.000013473261
 61       0.000097004229
 62       0.000044286687
 63       0.000057048222
 64       0.000041067386
 65       0.491422903997
 66      -0.016365954255
 67       0.007496505421
 68      -0.000040013002
 69      -0.000670261287
 70       0.000419197539
 71      -0.000101842290
 72      -0.001746129946
 73       0.001094082551
 74      -0.000035595513
 75      -0.000021237380
 76      -0.000362351898
 77      -0.000284377990
 78       0.000029172390
 79       0.461012076975
 80      -0.015331212579
 81       0.006936374380
 82      -0.000388622853
 83      -0.000083112477
 84      -0.000630241221
 85      -0.000998715146
 86      -0.000213095157
 87      -0.001622136000
 88       0.000251554226
 89       0.000330292095
 90       0.000070157501
 91       0.000098188561
 92       0.000043015995
 93       0.501949585524
 94      -0.016724126112
 95       0.007690381863
 96      -0.000316799678
 97       0.000606137902
 98       0.000429580787
 99      -0.000826400420
100       0.001586944688
101       0.001125374105
102      -0.000035588407
103      -0.000171116195
104       0.000329717659
105      -0.000170375984
106      -0.000236258290
 Sym=     1a
 Ene= -9.81671458226862E+00
 Spin= Alpha
 Occup= 2.000000
  1      -0.000023955187
  2      -0.000021513991
  3      -0.000132007488
  4       0.000129705523
  5       0.000027762397
  6      -0.000029689659
  7       0.000097546299
  8       0.000020878397
  9      -0.000022329194
 10      -0.000023557947
 11      -0.000019851423
 12      -0.000004248814
 13       0.000041375012
 14       0.000018561383
 15      -0.439131594639
 16       1.062482683716
 17      -0.846306719588
 18      -0.587250571084
 19      -0.022422437186
 20       0.003609035262
 21      -0.000000022349
 22      -0.000000010086
 23       0.000000017904
 24      -0.000000121629
 25      -0.000000055255
 26       0.000000091244
 27      -0.000000023646
 28      -0.000000009444
 29       0.000000012136
 30       0.000000015453
 31       0.000000006963
 32      -0.000000001227
 33      -0.000000004015
 34      -0.000000002728
 35       0.000000002483
 36       0.000000018013
 37       0.000000017434
 38      -0.000000010183
 39       0.000000010540
 40      -0.000000025534
 41       0.000000006592
 42       0.000000005426
 43      -0.000000001588
 44       0.000000004076
 45      -0.000000005671
 46      -0.000000000225
 47       0.000000001425
 48       0.000000002019
 49      -0.000000000189
 50       0.000000003817
 51      -0.000044077238
 52      -0.000077063448
 53      -0.000016185157
 54      -0.000108943888
 55      -0.000048779363
 56      -0.000058522147
 57      -0.000043014797
 58       0.000107392544
 59       0.000187780443
 60       0.000039405338
 61       0.000265456121
 62       0.000118849134
 63       0.000142577978
 64       0.000104810563
 65      -0.000023955715
 66      -0.000021515125
 67      -0.000132006109
 68      -0.000006334736
 69      -0.000114916344
 70       0.000072318383
 71      -0.000004759992
 72      -0.000086425642
 73       0.000054384484
 74      -0.000004147205
 75      -0.000002359802
 76      -0.000042838410
 77      -0.000033934125
 78       0.000003749971
 79      -0.000023953691
 80      -0.000021509980
 81      -0.000132014887
 82      -0.000070632696
 83      -0.000014990887
 84      -0.000115157546
 85      -0.000053117896
 86      -0.000011266684
 87      -0.000086600970
 88       0.000031711032
 89       0.000041931290
 90       0.000008895409
 91       0.000012280797
 92       0.000005455964
 93      -0.000023955658
 94      -0.000021514665
 95      -0.000132006909
 96      -0.000052741581
 97       0.000102144736
 98       0.000072530690
 99      -0.000039661103
100       0.000076817057
101       0.000054552478
102      -0.000004005448
103      -0.000019719176
104       0.000038191466
105      -0.000019721531
106      -0.000027768120
 Sym=     1a
 Ene= -7.54957584788940E+00
 Spin= Alpha
 Occup= 2.000000
  1      -0.000117269328
  2      -0.000056695965
  3      -0.000446461115
  4       0.000349315551
  5       0.000056488810
  6      -0.000082529359
  7      -0.000410656525
  8      -0.000039465605
  9       0.000100812337
 10       0.000074305433
 11       0.000075052625
 12       0.000004360080
 13      -0.000151864529
 14      -0.000019818275
 15      -0.000000067908
 16       0.000000165090
 17      -0.000000164282
 18      -0.000000052639
 19       0.000000040291
 20      -0.000000011771
 21       0.114620838183
 22       0.152155715125
 23      -0.008288691486
 24       0.649951701168
 25       0.862791331593
 26      -0.047000606892
 27       0.017207427850
 28       0.022842358608
 29      -0.001244342175
 30      -0.001024542499
 31      -0.001360058297
 32       0.000074092485
 33       0.000185071914
 34       0.000245675998
 35      -0.000013386941
 36       0.000136968581
 37       0.000175055757
 38      -0.000188532642
 39      -0.000220739029
 40       0.000001998022
 41      -0.000160664252
 42      -0.000205356460
 43       0.000221066377
 44       0.000258918241
 45      -0.000002241111
 46      -0.000032391058
 47      -0.000041389191
 48       0.000044558773
 49       0.000052178148
 50      -0.000000467563
 51       0.000025853854
 52      -0.000003168405
 53       0.000011667816
 54       0.000014381503
 55      -0.000017353284
 56      -0.000031532224
 57       0.000000937627
 58      -0.000047830434
 59       0.000005847648
 60      -0.000021603884
 61      -0.000026620763
 62       0.000032096933
 63       0.000058361934
 64      -0.000001740818
 65       0.000114077088
 66       0.000055153237
 67       0.000434308497
 68       0.000000958165
 69       0.000293415863
 70      -0.000197177946
 71       0.000021927580
 72      -0.000333674143
 73       0.000243173735
 74       0.000009452380
 75       0.000013347057
 76      -0.000149452294
 77      -0.000099857700
 78      -0.000021306915
 79       0.000057135803
 80       0.000027620245
 81       0.000217535832
 82       0.000080626569
 83      -0.000001195047
 84       0.000159401951
 85      -0.000077007534
 86       0.000032169943
 87      -0.000199613642
 88       0.000086127467
 89       0.000056235551
 90      -0.000028398902
 91       0.000008772304
 92      -0.000021192349
 93      -0.000053947184
 94      -0.000026081773
 95      -0.000205388166
 96      -0.000084829517
 97       0.000110703062
 98       0.000095268896
 99       0.000128448495
100      -0.000106784740
101      -0.000119975770
102      -0.000007166995
103       0.000063322865
104      -0.000050380703
105      -0.000019246004
106       0.000064619012
 Sym=     1a
 Ene= -7.54957567060159E+00
 Spin= Alpha
 Occup= 2.000000
  1       0.000095173899
  2       0.000046015517
  3       0.000362330954
  4      -0.000280778835
  5      -0.000076586576
  6       0.000050109146
  7       0.000326074461
  8       0.000113482024
  9      -0.000037116983
 10      -0.000075336039
 11      -0.000017557718
 12      -0.000014318675
 13       0.000101600216
 14       0.000089161766
 15       0.000000058753
 16      -0.000000144416
 17       0.000000155245
 18       0.000000024844
 19      -0.000000020370
 20       0.000000010450
 21      -0.112002041783
 22       0.091155573405
 23       0.124515881910
 24      -0.635101955698
 25       0.516893103082
 26       0.706061059575
 27      -0.016814261180
 28       0.013684699197
 29       0.018692893865
 30       0.001001116323
 31      -0.000814786189
 32      -0.001112963169
 33      -0.000180843692
 34       0.000147182386
 35       0.000201040085
 36      -0.000005517170
 37       0.000094672288
 38      -0.000183972290
 39       0.000230360325
 40       0.000194368500
 41       0.000006466902
 42      -0.000110937410
 43       0.000215789075
 44      -0.000270239715
 45      -0.000227933762
 46       0.000001288029
 47      -0.000022371241
 48       0.000043473046
 49      -0.000054459708
 50      -0.000045944357
 51      -0.000026470931
 52       0.000022927737
 53       0.000016198196
 54      -0.000001576091
 55      -0.000022198583
 56      -0.000005997724
 57       0.000017275172
 58       0.000048948745
 59      -0.000042420364
 60      -0.000029965884
 61       0.000002913266
 62       0.000041068853
 63       0.000011099589
 64      -0.000031938091
 65       0.000004619256
 66       0.000002232199
 67       0.000017585316
 68       0.000016744893
 69      -0.000000296112
 70      -0.000025863582
 71      -0.000043377027
 72       0.000018742866
 73       0.000057226879
 74       0.000041253299
 75      -0.000022934167
 76      -0.000028918352
 77       0.000025358483
 78       0.000034363732
 79       0.000047265914
 80       0.000022850007
 81       0.000179956304
 82       0.000096318004
 83       0.000003983313
 84       0.000113051523
 85      -0.000142190267
 86       0.000013439826
 87      -0.000115273435
 88       0.000001684414
 89       0.000084200008
 90      -0.000018401960
 91       0.000047407395
 92      -0.000001470481
 93      -0.000147062956
 94      -0.000071104316
 95      -0.000559877087
 96      -0.000170455506
 97       0.000348132186
 98       0.000238637941
 99       0.000189072024
100      -0.000413910061
101      -0.000271225752
102       0.000025878955
103       0.000068654886
104      -0.000156861585
105       0.000099300837
106       0.000108794786
 Sym=     1a
 Ene= -7.54957547693239E+00
 Spin= Alpha
 Occup= 2.000000
  1       0.000043532955
  2       0.000021048276
  3       0.000165730237
  4      -0.000120969426
  5      -0.000039082324
  6       0.000051725864
  7       0.000129377125
  8       0.000062640704
  9      -0.000093300484
 10      -0.000008805368
 11      -0.000074311195
 12      -0.000024344880
 13       0.000025061914
 14       0.000046107660
 15      -0.000000011929
 16       0.000000030835
 17      -0.000000044980
 18       0.000000018853
 19      -0.000000018468
 20       0.000000002441
 21      -0.103322829373
 22       0.069980712672
 23      -0.144170363282
 24      -0.585886930571
 25       0.396822124626
 26      -0.817510826478
 27      -0.015511266250
 28       0.010505816258
 29      -0.021643474489
 30       0.000923510019
 31      -0.000625498984
 32       0.001288611895
 33      -0.000166819278
 34       0.000112983527
 35      -0.000232773624
 36      -0.000184474595
 37      -0.000211772700
 38      -0.000207589523
 39      -0.000105080941
 40       0.000025939524
 41       0.000216450280
 42       0.000248364105
 43       0.000243395019
 44       0.000123200790
 45      -0.000030408961
 46       0.000043606875
 47       0.000050046256
 48       0.000049069451
 49       0.000024823176
 50      -0.000006133809
 51      -0.000002626224
 52      -0.000032682890
 53       0.000001957586
 54       0.000010729305
 55      -0.000012220152
 56       0.000014291691
 57       0.000027766324
 58       0.000004865824
 59       0.000060477769
 60      -0.000003631175
 61      -0.000019833812
 62       0.000022580211
 63      -0.000026435572
 64      -0.000051345971
 65       0.000108033788
 66       0.000052235206
 67       0.000411286455
 68       0.000031252286
 69       0.000288485184
 70      -0.000167206963
 71      -0.000059637745
 72      -0.000344111233
 73       0.000178550466
 74      -0.000038246319
 75      -0.000028202440
 76      -0.000114770573
 77      -0.000112536931
 78       0.000045007719
 79      -0.000138580582
 80      -0.000066994651
 81      -0.000527598658
 82      -0.000220566399
 83      -0.000059973795
 84      -0.000363084346
 85       0.000253058825
 86       0.000088578511
 87       0.000421799740
 88      -0.000121911937
 89      -0.000157011686
 90      -0.000062317674
 91      -0.000041398364
 92      -0.000036430495
 93      -0.000012978503
 94      -0.000006276531
 95      -0.000049412065
 96      -0.000001662328
 97       0.000021856951
 98       0.000043285876
 99      -0.000018773334
100      -0.000013022670
101      -0.000082817380
102      -0.000050217238
103       0.000008008108
104      -0.000045093917
105       0.000004113546
106      -0.000023881251
 Sym=     1a
 Ene= -4.08144013296147E+00
 Spin= Alpha
 Occup= 2.000000
  1      -0.003039027460
  2      -0.005666677220
  3      -0.003174316719
  4       0.004523382655
  5       0.000375905772
  6      -0.001108424193
  7      -0.002021224533
  8      -0.000195931540
  9       0.000491828291
 10       0.000404332280
 11       0.000392316520
 12       0.000071738788
 13      -0.000833867853
 14      -0.000122586066
 15       0.000000014724
 16      -0.000000037484
 17       0.000000070841
 18      -0.000000041198
 19      -0.000000029892
 20       0.000000048253
 21      -0.000177643624
 22       0.000095443108
 23       0.000057119138
 24      -0.000408821443
 25       0.000219768042
 26       0.000131404132
 27      -0.001464474464
 28       0.000786472912
 29       0.000471053596
 30       0.002682878770
 31      -0.001441002461
 32      -0.000862805627
 33      -0.001105962854
 34       0.000594024407
 35       0.000355645280
 36       0.266642447234
 37       0.082364908372
 38       0.568045232195
 39      -0.503513025236
 40      -0.471883569860
 41       0.031674265341
 42       0.009783983155
 43       0.067477565543
 44      -0.059811865819
 45      -0.056054510670
 46       0.000519401594
 47       0.000160408466
 48       0.001106502573
 49      -0.000980807504
 50      -0.000919171251
 51       0.000880505892
 52      -0.000221367604
 53      -0.000410583672
 54      -0.000025243109
 55       0.000678609782
 56      -0.000171910953
 57      -0.000822746135
 58      -0.000494359199
 59       0.000124297039
 60       0.000230532896
 61       0.000014179025
 62      -0.000380916739
 63       0.000096557008
 64       0.000461965530
 65      -0.000785482501
 66      -0.001464643464
 67      -0.000820445072
 68       0.000741353640
 69      -0.001278781620
 70       0.000284701487
 71      -0.000293568514
 72       0.000559935379
 73      -0.000144547262
 74       0.000182064076
 75      -0.000176031560
 76       0.000164594497
 77       0.000222532759
 78       0.000235319474
 79       0.000624551649
 80       0.001164564560
 81       0.000652359241
 82       0.001206347685
 83      -0.000334730397
 84       0.000428018777
 85      -0.000505979164
 86       0.000128676814
 87      -0.000210022471
 88      -0.000111873588
 89       0.000330219681
 90      -0.000104729756
 91       0.000185244457
 92      -0.000084872854
 93       0.003199985456
 94       0.005966814523
 95       0.003342396050
 96       0.002387475324
 97      -0.003520501687
 98      -0.002452803046
 99      -0.001045531154
100       0.001583955790
101       0.001105929502
102      -0.000111302198
103      -0.000434392683
104       0.000642094775
105      -0.000259717818
106      -0.000670491295
 Sym=     1a
 Ene= -4.08143998338830E+00
 Spin= Alpha
 Occup= 2.000000
  1      -0.001749574061
  2      -0.003262313724
  3      -0.001827468988
  4       0.002297854501
  5       0.001118529872
  6      -0.001132548581
  7      -0.001041239369
  8      -0.000473315557
  9       0.000480733232
 10       0.000131718315
 11       0.000390002538
 12       0.000096550139
 13      -0.000304223092
 14      -0.000402588698
 15      -0.000000012429
 16       0.000000031530
 17      -0.000000011632
 18      -0.000000079273
 19       0.000000074343
 20       0.000000024439
 21      -0.000033259641
 22      -0.000148346609
 23       0.000144314730
 24      -0.000076506298
 25      -0.000341484024
 26       0.000332251587
 27      -0.000274296113
 28      -0.001222725372
 29       0.001189311746
 30       0.000502404435
 31       0.002240086434
 32      -0.002179064382
 33      -0.000207113735
 34      -0.000923403401
 35       0.000898278580
 36      -0.083134631302
 37      -0.116624038194
 38      -0.605757216452
 39      -0.697549287100
 40      -0.052227451928
 41      -0.009875460465
 42      -0.013853630126
 43      -0.071957326245
 44      -0.082861171669
 45      -0.006204122706
 46      -0.000161941688