[Molden Format]
[Title]
 Molden file created by orca_2mkl for BaseName=BrF5

[Atoms] AU
Br   1  35          1.7728463333         0.1989758023         0.0359191146 
F    2   9          1.7731333739        -0.3091692014         3.5189472326 
F    3   9          1.7724051359         3.4696091514        -1.2648105594 
F    4   9          1.7729971393        -2.5636905566        -2.1450449338 
F    5   9         -1.6868192502         0.1986337984         0.0359137645 
F    6   9          5.2325167030         0.1993810047         0.0354490239 
[GTO]
  1 0
s   6 1.0 
   113286.3877600000         7.5076141183
    17009.6263030000        13.8835270484
     3870.1842567000        22.7307285566
     1093.0357227000        30.8227297499
      356.3972179700        27.2481937511
      123.1253964300         9.6953381145
s   3 1.0 
      236.7408400700        -4.7631125758
       28.4686610700         5.6113863182
       11.8834437220         1.9900291396
s   3 1.0 
       21.2696333120        -1.5429794477
        3.6129226841         1.3310800628
        1.6626648969         0.4300130345
s   1 1.0 
        0.3482379323         0.3230852630
s   1 1.0 
        0.1301903139         0.1544699827
p   5 1.0 
     1560.2801881000       115.0180051576
      368.4785920500       143.9035925417
      117.2297884900       137.5255986684
       42.6489092480        78.9578527439
       16.0872250960        15.8580577654
p   3 1.0 
        8.6352810058         6.8437546680
        3.5613665502         3.7974971038
        1.5292626609         0.5585414278
p   1 1.0 
        0.5306429485         0.6455696201
p   1 1.0 
        0.1570275896         0.1408996918
d   4 1.0 
      104.8551864200       261.4493931636
       30.2811436880       176.6993802449
       10.6513942670        76.9545600188
        3.8699456233        17.5937671387
d   1 1.0 
        1.3240876762         4.6593398042
d   1 1.0 
        0.3890000000         0.5462379705

  2 0
s   5 1.0 
     2894.8325990000        -1.5046183743
      435.4193912000        -2.7151913889
       98.8433288660        -4.0084234848
       27.4851980010        -4.0066489820
        8.5405498171        -1.5924531440
s   1 1.0 
        1.0654578038         0.7474158152
s   1 1.0 
        0.3324734675         0.3120526226
p   3 1.0 
       22.6966339240        -4.5745381020
        4.9872339257        -3.6157678437
        1.3491613954        -1.5230827082
p   1 1.0 
        0.3482988198         0.3813994755
d   1 1.0 
        1.4000000000         5.1368176128

  3 0
s   5 1.0 
     2894.8325990000        -1.5046183743
      435.4193912000        -2.7151913889
       98.8433288660        -4.0084234848
       27.4851980010        -4.0066489820
        8.5405498171        -1.5924531440
s   1 1.0 
        1.0654578038         0.7474158152
s   1 1.0 
        0.3324734675         0.3120526226
p   3 1.0 
       22.6966339240        -4.5745381020
        4.9872339257        -3.6157678437
        1.3491613954        -1.5230827082
p   1 1.0 
        0.3482988198         0.3813994755
d   1 1.0 
        1.4000000000         5.1368176128

  4 0
s   5 1.0 
     2894.8325990000        -1.5046183743
      435.4193912000        -2.7151913889
       98.8433288660        -4.0084234848
       27.4851980010        -4.0066489820
        8.5405498171        -1.5924531440
s   1 1.0 
        1.0654578038         0.7474158152
s   1 1.0 
        0.3324734675         0.3120526226
p   3 1.0 
       22.6966339240        -4.5745381020
        4.9872339257        -3.6157678437
        1.3491613954        -1.5230827082
p   1 1.0 
        0.3482988198         0.3813994755
d   1 1.0 
        1.4000000000         5.1368176128

  5 0
s   5 1.0 
     2894.8325990000        -1.5046183743
      435.4193912000        -2.7151913889
       98.8433288660        -4.0084234848
       27.4851980010        -4.0066489820
        8.5405498171        -1.5924531440
s   1 1.0 
        1.0654578038         0.7474158152
s   1 1.0 
        0.3324734675         0.3120526226
p   3 1.0 
       22.6966339240        -4.5745381020
        4.9872339257        -3.6157678437
        1.3491613954        -1.5230827082
p   1 1.0 
        0.3482988198         0.3813994755
d   1 1.0 
        1.4000000000         5.1368176128

  6 0
s   5 1.0 
     2894.8325990000        -1.5046183743
      435.4193912000        -2.7151913889
       98.8433288660        -4.0084234848
       27.4851980010        -4.0066489820
        8.5405498171        -1.5924531440
s   1 1.0 
        1.0654578038         0.7474158152
s   1 1.0 
        0.3324734675         0.3120526226
p   3 1.0 
       22.6966339240        -4.5745381020
        4.9872339257        -3.6157678437
        1.3491613954        -1.5230827082
p   1 1.0 
        0.3482988198         0.3813994755
d   1 1.0 
        1.4000000000         5.1368176128

[5D]
[7F]
[9G]
[MO]
 Sym=     1a
 Ene= -4.90419267774375E+02
 Spin= Alpha
 Occup= 2.000000
  1       0.994945924748
  2       0.015792219409
  3      -0.003816843861
  4       0.002158970861
  5      -0.001113984589
  6      -0.000000000147
  7      -0.000000000689
  8       0.000000005164
  9       0.000000000153
 10       0.000000000329
 11      -0.000000002458
 12      -0.000000000228
 13      -0.000000002013
 14       0.000000015060
 15      -0.000000001404
 16       0.000000010632
 17      -0.000000079642
 18      -0.000000837172
 19      -0.000000000194
 20       0.000000000649
 21       0.000001445859
 22       0.000000000312
 23       0.000004330762
 24       0.000000001005
 25      -0.000000003106
 26      -0.000007481147
 27      -0.000000001615
 28      -0.000017342415
 29      -0.000000004031
 30       0.000000011419
 31       0.000029964609
 32       0.000000006472
 33       0.000000654801
 34       0.000001645187
 35       0.000083585970
 36       0.000000002915
 37      -0.000005093889
 38       0.000034915755
 39       0.000000006098
 40      -0.000010483207
 41       0.000071856793
 42      -0.000040730598
 43      -0.000000005917
 44       0.000010402521
 45       0.000000762078
 46       0.000000000864
 47       0.000000658730
 48       0.000001687303
 49       0.000083488166
 50      -0.000000004386
 51       0.000032796902
 52      -0.000013040916
 53      -0.000000008936
 54       0.000067544811
 55      -0.000026854524
 56       0.000012412524
 57      -0.000000003360
 58       0.000025016250
 59       0.000031454530
 60       0.000000008448
 61       0.000000658785
 62       0.000001687899
 63       0.000083486782
 64       0.000000001550
 65      -0.000027703946
 66      -0.000021867849
 67       0.000000003291
 68      -0.000057057356
 69      -0.000045034091
 70      -0.000003194655
 71       0.000000001959
 72      -0.000035431050
 73       0.000022443867
 74       0.000000002482
 75       0.000001605110
 76       0.000014994192
 77       0.000055234816
 78      -0.000038071433
 79      -0.000000004126
 80       0.000000002658
 81      -0.000102790116
 82      -0.000000011669
 83       0.000000011134
 84       0.000026827233
 85       0.000000001931
 86      -0.000000000035
 87      -0.000046465901
 88      -0.000000009464
 89       0.000001605022
 90       0.000014993151
 91       0.000055237203
 92       0.000038071232
 93       0.000000004096
 94      -0.000000002455
 95       0.000102788212
 96       0.000000010530
 97      -0.000000002673
 98       0.000026826939
 99       0.000000010553
100      -0.000000000034
101      -0.000046465392
102      -0.000000010607
 Sym=     1a
 Ene= -6.55726559587526E+01
 Spin= Alpha
 Occup= 2.000000
  1       0.347536508881
  2      -1.047685707739
  3      -0.016426361053
  4       0.003658885752
  5      -0.001627592266
  6       0.000000020424
  7       0.000000121989
  8      -0.000000914213
  9       0.000000001876
 10       0.000000009772
 11      -0.000000073245
 12      -0.000000000918
 13      -0.000000005338
 14       0.000000040021
 15      -0.000000001823
 16       0.000000015762
 17      -0.000000118135
 18      -0.000001949880
 19      -0.000000000443
 20      -0.000000004141
 21       0.000003403869
 22       0.000000000728
 23       0.000011280283
 24       0.000000002618
 25      -0.000000003781
 26      -0.000019513721
 27      -0.000000004211
 28      -0.000040305205
 29      -0.000000009376
 30       0.000000019258
 31       0.000069686995
 32       0.000000015055
 33       0.000001768679
 34       0.000016033391
 35       0.000092872657
 36       0.000000004399
 37      -0.000007698933
 38       0.000052771775
 39       0.000000010352
 40      -0.000017918439
 41       0.000122820934
 42      -0.000066071616
 43      -0.000000009586
 44       0.000016891761
 45       0.000001120960
 46       0.000000001377
 47       0.000001773326
 48       0.000016089287
 49       0.000092732494
 50      -0.000000006634
 51       0.000049563765
 52      -0.000019709015
 53      -0.000000015340
 54       0.000115428698
 55      -0.000045896819
 56       0.000020221661
 57      -0.000000005443
 58       0.000040620510
 59       0.000050957356
 60       0.000000013700
 61       0.000001773392
 62       0.000016090078
 63       0.000092730505
 64       0.000000002337
 65      -0.000041866739
 66      -0.000033048460
 67       0.000000005553
 68      -0.000097504957
 69      -0.000076963821
 70      -0.000005120579
 71       0.000000003192
 72      -0.000057531117
 73       0.000036326222
 74       0.000000004000
 75       0.000003258189
 76       0.000040415768
 77       0.000034886553
 78      -0.000056685180
 79      -0.000000006042
 80       0.000000003191
 81      -0.000181490363
 82      -0.000000019947
 83       0.000000014742
 84       0.000044990064
 85       0.000000002278
 86      -0.000000000069
 87      -0.000077924628
 88      -0.000000015743
 89       0.000003258094
 90       0.000040414401
 91       0.000034889933
 92       0.000056684979
 93       0.000000006201
 94      -0.000000004424
 95       0.000181487620
 96       0.000000019250
 97      -0.000000009637
 98       0.000044989605
 99       0.000000018657
100      -0.000000000067
101      -0.000077923835
102      -0.000000017917
 Sym=     1a
 Ene= -5.89417944763870E+01
 Spin= Alpha
 Occup= 2.000000
  1       0.000000007413
  2      -0.000000022686
  3       0.000000001064
  4       0.000000001079
  5      -0.000000007018
  6      -0.990403113597
  7      -0.000109559902
  8       0.000071121822
  9      -0.024561378616
 10      -0.000002716933
 11       0.000001763629
 12       0.005816635718
 13       0.000000643047
 14      -0.000000416998
 15      -0.002658174419
 16      -0.000000293431
 17       0.000000189797
 18      -0.000000000718
 19      -0.000000075010
 20      -0.000000000013
 21       0.000000001158
 22       0.000000010000
 23      -0.000000000597
 24       0.000000036930
 25       0.000000000015
 26       0.000000001276
 27      -0.000000004914
 28       0.000000002624
 29      -0.000000043096
 30      -0.000000000058
 31      -0.000000005827
 32       0.000000005740
 33      -0.000000000083
 34      -0.000000000647
 35      -0.000000001477
 36       0.000060487183
 37       0.000000006762
 38      -0.000000004915
 39       0.000290042654
 40       0.000000032053
 41      -0.000000020918
 42       0.000000004296
 43      -0.000028213509
 44      -0.000000003645
 45      -0.000000002764
 46       0.000004116122
 47       0.000000000015
 48       0.000000000204
 49       0.000000001910
 50       0.000060480767
 51       0.000000007078
 52      -0.000000004474
 53       0.000290032529
 54       0.000000032542
 55      -0.000000020928
 56      -0.000000000936
 57       0.000010531469
 58       0.000000003703
 59       0.000000007314
 60      -0.000026480128
 61      -0.000000000021
 62      -0.000000000109
 63       0.000000000673
 64       0.000060480675
 65       0.000000006632
 66      -0.000000004345
 67       0.000290032382
 68       0.000000031805
 69      -0.000000020895
 70      -0.000000002225
 71       0.000017657998
 72       0.000000000062
 73      -0.000000003494
 74       0.000022367213
 75      -0.000005820468
 76      -0.000060347935
 77      -0.000471061410
 78       0.000156734122
 79       0.000000016600
 80      -0.000000007409
 81       0.000327686634
 82       0.000000037297
 83      -0.000000032724
 84      -0.000133097330
 85      -0.000000004622
 86       0.000000000446
 87       0.000230528482
 88       0.000000046316
 89       0.000005820163
 90       0.000060342635
 91       0.000471073088
 92       0.000156733643
 93       0.000000017486
 94      -0.000000014061
 95       0.000327675678
 96       0.000000034745
 97      -0.000000013536
 98       0.000133095106
 99       0.000000057441
100      -0.000000000439
101      -0.000230524618
102      -0.000000053334
 Sym=     1a
 Ene= -5.89417263813746E+01
 Spin= Alpha
 Occup= 2.000000
  1      -0.000000006054
  2       0.000000018523
  3      -0.000000000427
  4       0.000000003448
  5      -0.000000007523
  6       0.000097617122
  7      -0.979145689113
  8      -0.148966539111
  9       0.000002417471
 10      -0.024247759056
 11      -0.003689037074
 12      -0.000000557403
 13       0.005588093736
 14       0.000850168669
 15       0.000000235937
 16      -0.002361876431
 17      -0.000359334229
 18      -0.000002460532
 19       0.000000001107
 20      -0.000009745338
 21      -0.000001419672
 22       0.000000000660
 23       0.000006768718
 24      -0.000000002470
 25       0.000026812198
 26       0.000003907495
 27       0.000000001972
 28      -0.000031867304
 29       0.000000011222
 30      -0.000126235747
 31      -0.000018398469
 32      -0.000000011971
 33       0.000000069936
 34       0.000000616889
 35       0.000002015758
 36      -0.000000005133
 37       0.000051830102
 38       0.000008590844
 39      -0.000000025886
 40       0.000259630201
 41       0.000040121122
 42      -0.000008399281
 43       0.000000002215
 44      -0.000026562275
 45      -0.000004001761
 46      -0.000000002644
 47       0.000009891493
 48       0.000087290190
 49       0.000284263572
 50      -0.000000017529
 51       0.000143472578
 52      -0.000028504915
 53      -0.000000036843
 54       0.000340549549
 55       0.000007378897
 56       0.000072141861
 57      -0.000000014996
 58       0.000115738810
 59       0.000161378464
 60       0.000000042758
 61      -0.000009961691
 62      -0.000087910238
 63      -0.000286268947
 64      -0.000000009458
 65       0.000129802582
 66       0.000069375360
 67      -0.000000029704
 68       0.000328484902
 69       0.000093786373
 70       0.000003344097
 71      -0.000000010667
 72       0.000176573999
 73      -0.000118644174
 74      -0.000000013706
 75      -0.000000000083
 76      -0.000000000779
 77       0.000000002318
 78      -0.000000004401
 79       0.000044937399
 80       0.000006836745
 81      -0.000000022895
 82       0.000238264969
 83       0.000036249466
 84       0.000000144055
 85       0.000002000313
 86       0.000000570613
 87       0.000000080431
 88       0.000013148294
 89      -0.000000000108
 90      -0.000000001033
 91       0.000000000581
 92      -0.000000004988
 93       0.000044937486
 94       0.000006836758
 95      -0.000000024971
 96       0.000238264884
 97       0.000036249453
 98       0.000000144013
 99      -0.000002000496
100       0.000000571946
101       0.000000086720
102      -0.000013148716
 Sym=     1a
 Ene= -5.89417251732281E+01
 Spin= Alpha
 Occup= 2.000000
  1       0.000000330229
  2      -0.000001010345
  3       0.000000023451
  4      -0.000000188653
  5       0.000000410571
  6       0.000086792234
  7      -0.148966532619
  8       0.979145703312
  9       0.000002149495
 10      -0.003689030541
 11       0.024247717526
 12      -0.000000496080
 13       0.000850142841
 14      -0.005587924335
 15       0.000000210560
 16      -0.000359305147
 17       0.002361685462
 18      -0.000008300647
 19      -0.000000002558
 20       0.000002801160
 21      -0.000004842099
 22      -0.000000000611
 23       0.000023169406
 24       0.000000003294
 25      -0.000007801922
 26       0.000013399760
 27       0.000000002267
 28      -0.000109319199
 29      -0.000000012872
 30       0.000036796834
 31      -0.000063123110
 32      -0.000000011086
 33      -0.000011459311
 34      -0.000101093081
 35      -0.000329423357
 36      -0.000000013978
 37       0.000024378782
 38      -0.000164878763
 39      -0.000000031395
 40       0.000054048393
 41      -0.000359350029
 42       0.000236467906
 43       0.000000034148
 44      -0.000060909620
 45      -0.000002163542
 46      -0.000000004546
 47       0.000005797482
 48       0.000051167837
 49       0.000166170441
 50      -0.000000011860
 51       0.000061495912
 52      -0.000073230421
 53      -0.000000029530
 54       0.000086929347
 55      -0.000278534257
 56       0.000022865701
 57      -0.000000012876
 58       0.000091401280
 59       0.000083278881
 60       0.000000024299
 61       0.000005676179
 62       0.000050097550
 63       0.000162686765
 64      -0.000000002206
 65      -0.000036426985
 66      -0.000086906864
 67      -0.000000020982
 68       0.000000286744
 69      -0.000290636450
 70      -0.000029128604
 71       0.000000004659
 72      -0.000107976148
 73       0.000051792481
 74       0.000000003774
 75       0.000000005239
 76       0.000000049537
 77      -0.000000077291
 78      -0.000000020368
 79       0.000006835146
 80      -0.000044926911
 81      -0.000000077762
 82       0.000036243880
 83      -0.000238228311
 84       0.000000504954
 85      -0.000013142770
 86      -0.000000167548
 87       0.000000265640
 88       0.000001999587
 89       0.000000005174
 90       0.000000048871
 91      -0.000000081833
 92       0.000000011278
 93       0.000006835163
 94      -0.000044926998
 95       0.000000034587
 96       0.000036243879
 97      -0.000238228235
 98       0.000000500567
 99       0.000013143426
100      -0.000000164441
101       0.000000270571
102      -0.000001999575
 Sym=     1a
 Ene= -2.63666691159970E+01
 Spin= Alpha
 Occup= 2.000000
  1       0.000000210311
  2      -0.000005072526
  3      -0.000012986970
  4       0.002671734121
  5      -0.006731886858
  6      -0.000000001117
  7       0.000002092671
  8      -0.000014527953
  9       0.000000003581
 10      -0.000006724546
 11       0.000046683458
 12       0.000000027023
 13      -0.000046708387
 14       0.000324317447
 15      -0.000000312752
 16       0.000558446576
 17      -0.003877309572
 18      -0.000027451696
 19       0.000000000161
 20       0.000018947248
 21      -0.000078717187
 22      -0.000000015745
 23       0.000236951006
 24       0.000000017832
 25      -0.000107953579
 26       0.000309000717
 27       0.000000059583
 28      -0.001502747036
 29      -0.000000180686
 30       0.000490006507
 31      -0.000662641007
 32      -0.000000110608
 33       0.968965435107
 34      -0.032233393793
 35       0.014067477706
 36      -0.000000104948
 37       0.000184899485
 38      -0.001265830265
 39      -0.000000274807
 40       0.000485811355
 41      -0.003324341145
 42       0.000429577637
 43       0.000000063358
 44      -0.000106796602
 45      -0.000027872830
 46      -0.000000013190
 47       0.145199586919
 48      -0.004833515552
 49       0.001919092210
 50       0.000000028867
 51      -0.000159514697
 52       0.000177242561
 53       0.000000045269
 54      -0.000136714123
 55       0.000467901949
 56       0.000028582763
 57       0.000000000910
 58       0.000008499593
 59       0.000020954927
 60       0.000000005274
 61       0.143467896349
 62      -0.004775903555
 63       0.001893520387
 64       0.000000003268
 65       0.000100603912
 66       0.000213864362
 67       0.000000032298
 68      -0.000007225359
 69       0.000482825895
 70       0.000019453411
 71       0.000000003969
 72      -0.000027241858
 73       0.000016273409
 74       0.000000001533
 75       0.000910314911
 76      -0.000540088936
 77       0.001478865399
 78       0.000057223641
 79      -0.000007992210
 80       0.000055532279
 81       0.000608755253
 82      -0.000059151833
 83       0.000411118400
 84      -0.000017423621
 85       0.000100402066
 86      -0.000000248034
 87       0.000031900480
 88      -0.000014454380
 89       0.000910211656
 90      -0.000540084537
 91       0.001478855772
 92      -0.000057215024
 93      -0.000008004701
 94       0.000055540754
 95      -0.000608685654
 96      -0.000059283397
 97       0.000411200549
 98      -0.000017400227
 99      -0.000100410093
100      -0.000000271687
101       0.000031880880
102       0.000014468086
 Sym=     1a
 Ene= -2.63666002174578E+01
 Spin= Alpha
 Occup= 2.000000
  1      -0.000000199367
  2       0.000004708024
  3       0.000011954327
  4      -0.002475551660
  5       0.006238412965
  6      -0.000000001450
  7       0.000002926737
  8      -0.000015573911
  9       0.000000004672
 10      -0.000009405793
 11       0.000050051929
 12       0.000000029720
 13      -0.000065224843
 14       0.000346880093
 15      -0.000000367989
 16       0.000780415515
 17      -0.004151294748
 18      -0.000084932407
 19      -0.000000012278
 20       0.000017510575
 21       0.000009274966
 22       0.000000003162
 23       0.000409314362
 24       0.000000052668
 25      -0.000099796657
 26       0.000076547331
 27       0.000000009903
 28      -0.001462184675
 29      -0.000000147523
 30       0.000453132519
 31      -0.001033868323
 32      -0.000000193022
 33       0.204090038566
 34      -0.006784607260
 35       0.003215269852
 36      -0.000000018970
 37       0.000029310477
 38      -0.000238202591
 39      -0.000000077205
 40       0.000122064007
 41      -0.000972208707
 42       0.000214295316
 43       0.000000030314
 44      -0.000055019343
 45       0.000004354262
 46      -0.000000002718
 47      -0.705856896034
 48       0.023481335344
 49      -0.010202680181
 50      -0.000000114370
 51       0.000911594951
 52      -0.000243036237
 53      -0.000000291046
 54       0.002378773709
 55      -0.000511744516
 56       0.000087291820
 57      -0.000000023134
 58       0.000159225965
 59       0.000240681529
 60       0.000000062458
 61      -0.663835400527
 62       0.022083589140
 63      -0.009582880101
 64       0.000000052221
 65      -0.000764826921
 66      -0.000455453887
 67       0.000000147303
 68      -0.002022979901
 69      -0.001057980341
 70      -0.000013116132
 71       0.000000011023
 72      -0.000220217485
 73       0.000168411197
 74       0.000000021703
 75      -0.000845651720
 76       0.000500491898
 77      -0.001370581984
 78      -0.000052975687
 79      -0.000011167688
 80       0.000059366602
 81      -0.000564149496
 82      -0.000082767591
 83       0.000439946381
 84       0.000017653991
 85       0.000107473636
 86      -0.000000223616
 87      -0.000028728708
 88      -0.000020210687
 89      -0.000845554534
 90       0.000500487941
 91      -0.001370574656
 92       0.000052986483
 93      -0.000011156275
 94       0.000059360107
 95       0.000564225515
 96      -0.000082645531
 97       0.000439870489
 98       0.000017679113
 99      -0.000107465334
100      -0.000000249572
101      -0.000028751994
102       0.000020198186
 Sym=     1a
 Ene= -2.63665835686470E+01
 Spin= Alpha
 Occup= 2.000000
  1      -0.000000006285
  2       0.000000147671
  3       0.000000374190
  4      -0.000077614975
  5       0.000195596906
  6       0.000000002058
  7      -0.000021285710
  8      -0.000003567422
  9      -0.000000006615
 10       0.000068401603
 11       0.000011464052
 12      -0.000000045875
 13       0.000475258700
 14       0.000079630099
 15       0.000000548877
 16      -0.005682802805
 17      -0.000952255976
 18       0.000021484398
 19      -0.000000008521
 20       0.000093457506
 21       0.000014232674
 22       0.000000009501
 23      -0.000124746959
 24       0.000000048015
 25      -0.000532475488
 26      -0.000077033603
 27      -0.000000053143
 28       0.000578669176
 29      -0.000000215174
 30       0.002417034553
 31       0.000328149899
 32       0.000000235724
 33       0.004928041661
 34      -0.000163805035
 35       0.000079139713
 36      -0.000000017858
 37       0.000178266337
 38       0.000020326056
 39      -0.000000065262
 40       0.000648472765
 41       0.000069078168
 42      -0.000001663436
 43       0.000000003395
 44      -0.000030819327
 45      -0.000004202466
 46      -0.000000002989
 47       0.679156866988
 48      -0.022590552601
 49       0.010024009377
 50       0.000000111720
 51      -0.000781310401
 52       0.000410700570
 53       0.000000324803
 54      -0.002226417050
 55       0.001248619053
 56      -0.000101964481
 57       0.000000033898
 58      -0.000242826498
 59      -0.000291546158
 60      -0.000000079195
 61      -0.720631979447
 62       0.023970297469
 63      -0.010622694500
 64       0.000000030050
 65      -0.000678752367
 66      -0.000645822566
 67       0.000000076945
 68      -0.001901633416
 69      -0.001900768203
 70      -0.000047208407
 71       0.000000017255
 72      -0.000345127856
 73       0.000216404605
 74       0.000000023562
 75      -0.000026529645
 76       0.000015692182
 77      -0.000042973938
 78      -0.000001668638
 79       0.000081309092
 80       0.000013623719
 81      -0.000017748398
 82       0.000602352436
 83       0.000100932525
 84       0.000000230759
 85       0.000024655870
 86      -0.000001246969
 87      -0.000001116733
 88       0.000147140874
 89      -0.000026526864
 90       0.000015692023
 91      -0.000042973270
 92       0.000001652954
 93       0.000081310200
 94       0.000013623671
 95       0.000017631687
 96       0.000602355886
 97       0.000100930196
 98       0.000000236489
 99      -0.000024655339
100      -0.000001232569
101      -0.000001056473
102      -0.000147141128
 Sym=     1a
 Ene= -2.63439457355564E+01
 Spin= Alpha
 Occup= 2.000000
  1       0.000000040564
  2      -0.000000224651
  3       0.000000171396
  4       0.000090016501
  5      -0.000235235930
  6       0.000015571009
  7       0.000000001644
  8      -0.000000000788
  9      -0.000051893539
 10      -0.000000005473
 11       0.000000002582
 12      -0.000646349239
 13      -0.000000070451
 14       0.000000047687
 15       0.007510731227
 16       0.000000811872
 17      -0.000000508112
 18       0.000000734343
 19      -0.000000008610
 20      -0.000000000217
 21      -0.000001270622
 22       0.000000000892
 23      -0.000006195592
 24       0.000000058252
 25       0.000000000939
 26       0.000010725469
 27      -0.000000005607
 28       0.000039340585
 29      -0.000000353203
 30      -0.000000002395
 31      -0.000068125716
 32       0.000000033422
 33      -0.000032482846
 34      -0.000012461094
 35       0.000038476656
 36      -0.000123015143
 37       0.000000182737
 38      -0.000001335312
 39      -0.000794206481
 40       0.000001570937
 41      -0.000011302298
 42      -0.000001812822
 43       0.000186731139
 44       0.000000509027
 45      -0.000000146613
 46      -0.000027242578
 47      -0.000032553823
 48      -0.000012452754
 49       0.000038467893
 50      -0.000122905287
 51      -0.000001272546
 52       0.000000510053
 53      -0.000794009636
 54      -0.000010742747
 55       0.000004294630
 56       0.000000705497
 57      -0.000069737703
 58       0.000001151056
 59       0.000001228627
 60       0.000175350673
 61      -0.000032554532
 62      -0.000012452713
 63       0.000038468281
 64      -0.000122903893
 65       0.000001050106
 66       0.000000848891
 67      -0.000794008675
 68       0.000008915429
 69       0.000007162789
 70      -0.000000019272
 71      -0.000116929978
 72      -0.000001660700
 73       0.000000873600
 74      -0.000148116175
 75       0.720212743099
 76      -0.024347994552
 77       0.011561643158
 78       0.001032464783
 79       0.000000097487
 80       0.000000036440
 81       0.002857663735
 82       0.000000276932
 83       0.000000046376
 84      -0.000130520450
 85       0.000000009641
 86      -0.000000003675
 87       0.000226091596
 88       0.000000043527
 89      -0.679493562319
 90       0.022992805589
 91      -0.010975469858
 92       0.000978585418
 93       0.000000118871
 94      -0.000000165144
 95       0.002708070536
 96       0.000000321999
 97      -0.000000404583
 98       0.000117839615
 99       0.000000062072
100       0.000000003529
101      -0.000204126810
102      -0.000000048685
 Sym=     1a
 Ene= -2.63439013405768E+01
 Spin= Alpha
 Occup= 2.000000
  1      -0.000001391625
  2       0.000007718424
  3      -0.000005839957
  4      -0.003094581465
  5       0.008086240806
  6       0.000000452706
  7       0.000000001198
  8      -0.000000008654
  9      -0.000001508606
 10      -0.000000004181
 11       0.000000030244
 12      -0.000018807351
 13       0.000000016689
 14      -0.000000138875