[Molden Format]
[Title]
 Molden file created by orca_2mkl for BaseName=SF4

[Atoms] AU
F    1   9          5.4844789152         1.3599187789         2.3960544860 
S    2  16          6.9599029365         0.0700297945        -0.0568462337 
F    3   9          8.0632625221        -1.3780697324        -2.6147820389 
F    4   9          5.7186856757        -2.5372251937         0.7289990043 
F    5   9          4.8246293309         1.2415097142        -1.7958677660 
[GTO]
  1 0
s   5 1.0 
     2894.8325990000        -1.5046183743
      435.4193912000        -2.7151913889
       98.8433288660        -4.0084234848
       27.4851980010        -4.0066489820
        8.5405498171        -1.5924531440
s   1 1.0 
        1.0654578038         0.7474158152
s   1 1.0 
        0.3324734675         0.3120526226
p   3 1.0 
       22.6966339240        -4.5745381020
        4.9872339257        -3.6157678437
        1.3491613954        -1.5230827082
p   1 1.0 
        0.3482988198         0.3813994755
d   1 1.0 
        1.4000000000         5.1368176128

  2 0
s   5 1.0 
     9184.9303010000        -3.6596386668
     1381.5105503000        -6.6141849729
      313.8714758000        -9.8192408400
       88.0538706230        -9.7449531338
       27.0399149050        -3.6758260507
s   3 1.0 
       45.6487313030        -1.1503136051
        4.9664522326         1.3206582549
        2.0116242047         0.6153505252
s   1 1.0 
        0.3566107701         0.3288939871
s   1 1.0 
        0.1350722148         0.1587941899
p   5 1.0 
      261.9823343900       -13.7964473389
       61.3068947360       -16.1148706627
       19.1037298870       -13.9977166295
        6.6567720378        -7.3510639700
        2.3959635161        -1.6552675469
p   1 1.0 
        0.6177616168         0.7806677506
p   1 1.0 
        0.1699337687         0.1555212360
d   1 1.0 
        0.5500000000         1.0013935509

  3 0
s   5 1.0 
     2894.8325990000        -1.5046183743
      435.4193912000        -2.7151913889
       98.8433288660        -4.0084234848
       27.4851980010        -4.0066489820
        8.5405498171        -1.5924531440
s   1 1.0 
        1.0654578038         0.7474158152
s   1 1.0 
        0.3324734675         0.3120526226
p   3 1.0 
       22.6966339240        -4.5745381020
        4.9872339257        -3.6157678437
        1.3491613954        -1.5230827082
p   1 1.0 
        0.3482988198         0.3813994755
d   1 1.0 
        1.4000000000         5.1368176128

  4 0
s   5 1.0 
     2894.8325990000        -1.5046183743
      435.4193912000        -2.7151913889
       98.8433288660        -4.0084234848
       27.4851980010        -4.0066489820
        8.5405498171        -1.5924531440
s   1 1.0 
        1.0654578038         0.7474158152
s   1 1.0 
        0.3324734675         0.3120526226
p   3 1.0 
       22.6966339240        -4.5745381020
        4.9872339257        -3.6157678437
        1.3491613954        -1.5230827082
p   1 1.0 
        0.3482988198         0.3813994755
d   1 1.0 
        1.4000000000         5.1368176128

  5 0
s   5 1.0 
     2894.8325990000        -1.5046183743
      435.4193912000        -2.7151913889
       98.8433288660        -4.0084234848
       27.4851980010        -4.0066489820
        8.5405498171        -1.5924531440
s   1 1.0 
        1.0654578038         0.7474158152
s   1 1.0 
        0.3324734675         0.3120526226
p   3 1.0 
       22.6966339240        -4.5745381020
        4.9872339257        -3.6157678437
        1.3491613954        -1.5230827082
p   1 1.0 
        0.3482988198         0.3813994755
d   1 1.0 
        1.4000000000         5.1368176128

[5D]
[7F]
[9G]
[MO]
 Sym=     1a
 Ene= -9.22948506714192E+01
 Spin= Alpha
 Occup= 2.000000
  1       0.000029613815
  2       0.000397098001
  3      -0.000776375402
  4      -0.000069340897
  5       0.000065482220
  6       0.000122554428
  7      -0.000380670227
  8       0.000438078628
  9       0.000790425073
 10      -0.000167541091
 11       0.000232416066
 12      -0.000224527221
 13      -0.000007275355
 14       0.000123256709
 15       0.994311203490
 16      -0.021454702184
 17       0.008332085297
 18      -0.001513319394
 19      -0.000236294308
 20      -0.000100477920
 21      -0.000066704096
 22      -0.000377800951
 23      -0.000160650038
 24      -0.000106650141
 25      -0.001054399751
 26      -0.000448355137
 27      -0.000297647675
 28       0.000123544841
 29      -0.000136122291
 30       0.000058228487
 31      -0.000086769012
 32      -0.000130089934
 33       0.000029613397
 34       0.000397093044
 35      -0.000776363675
 36       0.000058392223
 37      -0.000070137270
 38      -0.000125644620
 39       0.000426271043
 40      -0.000418682317
 41      -0.000777545564
 42      -0.000183635640
 43       0.000204279814
 44      -0.000243600814
 45       0.000017313377
 46       0.000112472970
 47       0.000043092970
 48       0.000578088258
 49      -0.001373264497
 50      -0.000049693246
 51      -0.000139811151
 52       0.000050819322
 53      -0.000422533401
 54      -0.001133335152
 55       0.000401809004
 56       0.000171794492
 57       0.000071335653
 58       0.000193357724
 59       0.000230754684
 60      -0.000258404111
 61       0.000043092938
 62       0.000578087638
 63      -0.001373262541
 64      -0.000100719403
 65       0.000075851134
 66      -0.000093281294
 67      -0.000832556492
 68       0.000599633658
 69      -0.000756121368
 70       0.000001340885
 71      -0.000312119021
 72       0.000192403409
 73      -0.000114540662
 74       0.000210833308
 Sym=     1a
 Ene= -2.63951643476312E+01
 Spin= Alpha
 Occup= 2.000000
  1      -0.000119708881
  2       0.000870074004
  3      -0.003654960628
  4       0.000022141332
  5      -0.000029201712
  6      -0.000051430744
  7       0.000040187619
  8       0.000708750151
  9       0.001046579608
 10      -0.000068200490
 11      -0.000067091849
 12      -0.000096459202
 13       0.000068814746
 14      -0.000029095113
 15      -0.000026075146
 16      -0.000270662779
 17      -0.003839129220
 18       0.016795798139
 19      -0.000029988327
 20      -0.000012784669
 21      -0.000008446739
 22       0.000007408733
 23       0.000002850746
 24       0.000002259997
 25      -0.008043745552
 26      -0.003421829202
 27      -0.002269954125
 28      -0.000231985532
 29       0.000327830131
 30      -0.000551136628
 31      -0.000182912755
 32       0.000048768783
 33      -0.000119692926
 34       0.000870059797
 35      -0.003654953352
 36      -0.000029732447
 37       0.000025865284
 38       0.000049353303
 39       0.000970525825
 40      -0.000279057537
 41      -0.000761204972
 42       0.000034777636
 43       0.000112914624
 44       0.000025576592
 45      -0.000088503169
 46       0.000039896036
 47      -0.700280314733
 48       0.025429695569
 49      -0.016450258090
 50      -0.000420878264
 51      -0.001203171462
 52       0.000440818911
 53      -0.001075373612
 54      -0.004345217000
 55       0.001820831071
 56       0.000118559632
 57       0.000052310924
 58       0.000285484825
 59       0.000304641504
 60      -0.000123784119
 61      -0.699644377544
 62       0.025408575279
 63      -0.016441388308
 64      -0.000860503964
 65       0.000657586794
 66      -0.000802171442
 67      -0.002745344009
 68       0.002719180541
 69      -0.002898678857
 70      -0.000016239648
 71      -0.000250640143
 72       0.000284607982
 73       0.000031735600
 74       0.000247119668
 Sym=     1a
 Ene= -2.63950013173538E+01
 Spin= Alpha
 Occup= 2.000000
  1       0.000000053068
  2      -0.000000392914
  3       0.000001655680
  4       0.000026504826
  5      -0.000112051303
  6       0.000074903200
  7       0.000022272965
  8      -0.000094532877
  9       0.000062477693
 10      -0.000027322031
 11      -0.000049087478
 12       0.000002827920
 13      -0.000046648079
 14       0.000057771221
 15       0.000000011839
 16       0.000000122851
 17       0.000001743080
 18      -0.000007622777
 19       0.000015770183
 20      -0.000066589196
 21       0.000044501246
 22       0.000142580392
 23      -0.000602632272
 24       0.000402663751
 25       0.000673186503
 26      -0.002828249022
 27       0.001891843670
 28      -0.000293820621
 29      -0.000661376207
 30      -0.000001396548
 31      -0.000595340144
 32       0.000809128397
 33       0.000000054920
 34      -0.000000395559
 35       0.000001660378
 36       0.000026528868
 37      -0.000112079454
 38       0.000074858901
 39       0.000021852603
 40      -0.000094096886
 41       0.000063304212
 42      -0.000016764774
 43      -0.000050153159
 44      -0.000003044789
 45      -0.000042686954
 46       0.000063641401
 47      -0.699860520185
 48       0.023240736462
 49      -0.009754557071
 50      -0.000467169529
 51      -0.000971679634
 52       0.000290508460
 53      -0.001159031020
 54      -0.001984896969
 55       0.000488079950
 56       0.000168332561
 57       0.000055804831
 58       0.000136132702
 59       0.000162822946
 60      -0.000266393604
 61       0.700496261528
 62      -0.023263821734
 63       0.009769488668
 64       0.000800311626
 65      -0.000433641111
 66       0.000648824910
 67       0.001803025197
 68      -0.000728880788
 69       0.001326188138
 70      -0.000015261619
 71       0.000288740299
 72      -0.000135534470
 73       0.000147201250
 74      -0.000155175642
 Sym=     1a
 Ene= -2.63057500851618E+01
 Spin= Alpha
 Occup= 2.000000
  1      -0.708969874222
  2       0.024480001450
  3      -0.012811657625
  4      -0.000555489336
  5       0.000453696471
  6       0.000875702115
  7      -0.001749265791
  8       0.001360937956
  9       0.002656198990
 10      -0.000137213367
 11       0.000190461501
 12      -0.000178700232
 13      -0.000002357164
 14       0.000103701041
 15      -0.000000211254
 16      -0.000002256078
 17      -0.000028514559
 18       0.000121459721
 19      -0.000036401562
 20       0.000039124627
 21       0.000071444081
 22      -0.000053729095
 23       0.000063543879
 24       0.000114126307
 25      -0.003550394761
 26       0.003714019123
 27       0.006815617847
 28      -0.000171309924
 29      -0.000323038724
 30      -0.000202560661
 31       0.000273037445
 32      -0.000125705609
 33       0.691074305094
 34      -0.023881227780
 35       0.012545943839
 36      -0.000361631172
 37       0.000521419743
 38       0.000908414121
 39      -0.001049405600
 40       0.001620308631
 41       0.002796560387
 42       0.000147291095
 43      -0.000160285995
 44       0.000190237506
 45      -0.000019180511
 46      -0.000091206673
 47       0.000003143048
 48       0.000009166169
 49      -0.000039541630
 50      -0.000041109720
 51       0.000044521124
 52       0.000081972897
 53       0.000199573134
 54      -0.000223092542
 55      -0.000382404152
 56       0.000047134961
 57      -0.000071725177
 58      -0.000087199122
 59       0.000085311003
 60       0.000023002799
 61       0.000003140617
 62       0.000009163993
 63      -0.000039539950
 64      -0.000041274808
 65       0.000045219640
 66       0.000081507080
 67       0.000194912189
 68      -0.000203393864
 69      -0.000395563321
 70      -0.000118458644
 71      -0.000054999526
 72       0.000003971179
 73       0.000025525617
 74      -0.000071078426
 Sym=     1a
 Ene= -2.63056760781419E+01
 Spin= Alpha
 Occup= 2.000000
  1       0.691162086349
  2      -0.023115865629
  3       0.010232363663
  4       0.000343774237
  5      -0.000420483230
  6      -0.000751027121
  7       0.000725708808
  8      -0.001159979202
  9      -0.001993003321
 10       0.000180686837
 11      -0.000170067289
 12       0.000229815810
 13      -0.000038421657
 14      -0.000101146726
 15       0.000016519120
 16       0.000176405252
 17       0.002231538164
 18      -0.009502219390
 19      -0.000025525228
 20      -0.000010155934
 21      -0.000006160999
 22      -0.000342749100
 23      -0.000144641926
 24      -0.000095104994
 25       0.002878351749
 26       0.001290700568
 27       0.000912449304
 28      -0.000621981417
 29       0.000757505946
 30      -0.000773509993
 31       0.000064425123
 32       0.000438919982
 33       0.709055441344
 34      -0.023733941780
 35       0.010556426539
 36      -0.000427782822
 37       0.000402205281
 38       0.000753421108
 39      -0.001276782679
 40       0.000978953383
 41       0.001917217161
 42       0.000148908782
 43      -0.000236456580
 44       0.000192559336
 45       0.000015467819
 46      -0.000127363431
 47      -0.000245060210
 48      -0.000716515559
 49       0.003093115014
 50      -0.000066785977
 51       0.000002331567
 52      -0.000034011298
 53       0.000021349364
 54       0.000853129940
 55      -0.000462911683
 56      -0.000000610492
 57       0.000088764495
 58      -0.000080608460
 59       0.000011395299
 60      -0.000067767287
 61      -0.000245059159
 62      -0.000716514140
 63       0.003093112575
 64      -0.000053917067
 65      -0.000052058690
 66       0.000002329914
 67       0.000385876384
 68      -0.000687544063
 69       0.000566528541
 70      -0.000048751168
 71      -0.000014566985
 72      -0.000079703312
 73      -0.000082607618
 74       0.000057741145
 Sym=     1a
 Ene= -9.29196005621897E+00
 Spin= Alpha
 Occup= 2.000000
  1      -0.000066891175
  2      -0.000298586228
  3       0.000602325084
  4       0.000086842501
  5      -0.000079655271
  6      -0.000149963106
  7       0.000438009141
  8      -0.000405155819
  9      -0.000761456458
 10       0.000141732242
 11      -0.000204725677
 12       0.000190828306
 13       0.000010563610
 14      -0.000107652594
 15      -0.307568825967
 16      -1.029175772492
 17      -0.026861815820
 18       0.004857776663
 19      -0.015684921976
 20      -0.006669586852
 21      -0.004427722137
 22       0.002565486860
 23       0.001090903361
 24       0.000724214863
 25       0.000240448805
 26       0.000102248811
 27       0.000067882976
 28      -0.000260249879
 29       0.000282223067
 30      -0.000095157768
 31       0.000204281365
 32       0.000286220679
 33      -0.000066890682
 34      -0.000298586530
 35       0.000602326705
 36      -0.000069963323
 37       0.000086832179
 38       0.000154727648
 39      -0.000357446989
 40       0.000439411052
 41       0.000784197837
 42       0.000160717980
 43      -0.000171539189
 44       0.000213328696
 45      -0.000018440408
 46      -0.000094933600
 47      -0.000114842804
 48      -0.000388717942
 49       0.000853263042
 50       0.000119845346
 51       0.000240208502
 52      -0.000069573986
 53       0.000442979298
 54       0.000993297307
 55      -0.000314770597
 56      -0.000091600585
 57      -0.000039592646
 58      -0.000100460348
 59      -0.000122035349
 60       0.000139461694
 61      -0.000114842630
 62      -0.000388717681
 63       0.000853262038
 64       0.000201211379
 65      -0.000103685891
 66       0.000160208224
 67       0.000789056491
 68      -0.000469401690
 69       0.000662571760
 70      -0.000000029679
 71       0.000166407924
 72      -0.000099947594
 73       0.000063464709
 74      -0.000112623209
 Sym=     1a
 Ene= -6.97778373695427E+00
 Spin= Alpha
 Occup= 2.000000
  1       0.000199333635
  2       0.000795114550
  3      -0.000175119907
  4      -0.000171032239
  5       0.000270556867
  6       0.000465481032
  7      -0.000458429029
  8       0.000717923325
  9       0.001236771075
 10      -0.000368525145
 11       0.000482175305
 12      -0.000485602882
 13       0.000003367829
 14       0.000261648680
 15      -0.000000008206
 16      -0.000000028667
 17       0.000000004899
 18      -0.000000004411
 19       0.405502636818
 20      -0.430549190157
 21      -0.787914771506
 22      -0.016984957911
 23       0.018034073794
 24       0.033002733487
 25       0.001956067581
 26      -0.002076861383
 27      -0.003800760854
 28      -0.000510163620
 29      -0.000891823777
 30      -0.000604635002
 31       0.000779474155
 32      -0.000341857188
 33      -0.000199332300
 34      -0.000795110206
 35       0.000175108974
 36      -0.000290694070
 37       0.000219673374
 38       0.000431701384
 39      -0.000769382717
 40       0.000585689841
 41       0.001148979110
 42       0.000385264489
 43      -0.000452909754
 44       0.000505439742
 45      -0.000028942095
 46      -0.000250432291
 47      -0.000000005902
 48      -0.000000027359
 49       0.000000045144
 50       0.000024738830
 51      -0.000026252143
 52      -0.000048063767
 53      -0.000094246483
 54       0.000100138047
 55       0.000183154588
 56       0.000089840888
 57      -0.000098539755
 58      -0.000134263160
 59       0.000125806245
 60       0.000044443020
 61       0.000000004371
 62       0.000000020596
 63      -0.000000031860
 64       0.000024727997
 65      -0.000026258737
 66      -0.000048065556
 67      -0.000094297147
 68       0.000100104657
 69       0.000183147186
 70      -0.000187861626
 71      -0.000072805507
 72       0.000018101399
 73       0.000023911836
 74      -0.000110083079
 Sym=     1a
 Ene= -6.97775435758030E+00
 Spin= Alpha
 Occup= 2.000000
  1       0.000000003921
  2       0.000000015326
  3      -0.000000001701
  4      -0.000010036734
  5       0.000042412010
  6      -0.000028325797
  7       0.000035366151
  8      -0.000149497310
  9       0.000099924058
 10       0.000110983941
 11      -0.000019110489
 12      -0.000062988028
 13       0.000034470640
 14       0.000074237743
 15      -0.000000004287
 16      -0.000000015554
 17       0.000000004464
 18      -0.000000001503
 19      -0.190113842657
 20       0.803547262819
 21      -0.536934086270
 22       0.008095374437
 23      -0.034216403148
 24       0.022863547356
 25      -0.000671584203
 26       0.002838599443
 27      -0.001896795630
 28      -0.000814776599
 29      -0.001832945256
 30      -0.000004579951
 31      -0.001650504326
 32       0.002242971391
 33      -0.000000004063
 34      -0.000000016359
 35       0.000000003733
 36      -0.000010039090
 37       0.000042409654
 38      -0.000028325365
 39       0.000035359523
 40      -0.000149503351
 41       0.000099926415
 42      -0.000118522936
 43       0.000002144877
 44       0.000062946067
 45      -0.000049747572
 46      -0.000053476177
 47       0.000251037721
 48       0.001174816150
 49      -0.001881523431
 50      -0.000210408952
 51      -0.000390082778
 52       0.000104857670
 53      -0.000920915947
 54      -0.002144596505
 55       0.000697891138
 56       0.000387788518
 57       0.000189144120
 58       0.000312154638
 59       0.000430944613
 60      -0.000641856459
 61      -0.000251037207
 62      -0.001174815181
 63       0.001881521678
 64       0.000339656357
 65      -0.000156179508
 66       0.000260139897
 67       0.001674607226
 68      -0.001040906917
 69       0.001430601189
 70       0.000001660113
 71       0.000686967569
 72      -0.000309975897
 73       0.000357986997
 74      -0.000430256177
 Sym=     1a
 Ene= -6.97423586651753E+00
 Spin= Alpha
 Occup= 2.000000
  1      -0.000015836855
  2      -0.000259695661
  3       0.000825972053
  4       0.000042835012
  5       0.000025427596
  6       0.000022887153
  7      -0.000104412795
  8      -0.000249576990
  9      -0.000336546244
 10      -0.000032376234
 11      -0.000089133428
 12      -0.000033250392
 13       0.000068244292
 14      -0.000034448850
 15      -0.005851313406
 16      -0.021051392264
 17       0.004656183279
 18      -0.002133169837
 19       0.877871745950
 20       0.373291311145
 21       0.247817457187
 22      -0.035258402695
 23      -0.014992686719
 24      -0.009953219506
 25       0.004188065996
 26       0.001780860405
 27       0.001182260226
 28      -0.001031127324
 29       0.001155992598
 30      -0.000606846891
 31       0.000629675640
 32       0.001032217397
 33      -0.000015837309
 34      -0.000259697631
 35       0.000825971220
 36       0.000052535379
 37       0.000015127215
 38       0.000004036856
 39      -0.000380385695
 40       0.000043430604
 41       0.000199692889
 42       0.000053738928
 43       0.000061402496
 44       0.000068808192
 45      -0.000063317996
 46       0.000023244809
 47       0.000174121760
 48       0.000545313340
 49      -0.000170530768
 50      -0.000035541612
 51      -0.000356233037
 52       0.000176358143
 53      -0.000553911834
 54      -0.001159464728
 55       0.000348478326
 56       0.000187461372
 57       0.000113737639
 58       0.000337546677
 59       0.000404290493
 60      -0.000251769515
 61       0.000174121953
 62       0.000545315102
 63      -0.000170532870
 64      -0.000182205574
 65       0.000263641223
 66      -0.000237828389
 67      -0.000951153750
 68       0.000519474568
 69      -0.000773352883
 70      -0.000033169598
 71      -0.000382596804
 72       0.000336312306
 73      -0.000042651195
 74       0.000355598854
 Sym=     1a
 Ene= -1.74137029064291E+00
 Spin= Alpha
 Occup= 2.000000
  1       0.071828265380
  2       0.138401533946
  3       0.111401684644
  4      -0.009835023886
  5       0.015499949954
  6       0.026679881731
  7       0.007113036444
  8      -0.010589374697
  9      -0.018366821209
 10       0.002253052005
 11      -0.002107101415
 12       0.002846254075
 13      -0.000499086583
 14      -0.001264930644
 15      -0.030731000289
 16      -0.188552092393
 17       0.286003645263
 18      -0.035502278582
 19      -0.042329779052
 20      -0.017999743925
 21      -0.011949404760
 22      -0.067566176050
 23      -0.028730914286
 24      -0.019073462532
 25       0.007803662320
 26       0.003318239412
 27       0.002202887620
 28      -0.003003378090
 29       0.004313289093
 30      -0.007521450080
 31      -0.002664722567
 32       0.000457716667
 33       0.071827710470
 34       0.138400495330
 35       0.111400644770
 36       0.016637827353
 37      -0.012607134768
 38      -0.024759414473
 39      -0.011198003080
 40       0.008852188541
 41       0.017213459469
 42       0.001802269780
 43      -0.002895058249
 44       0.002311999758
 45       0.000189580623
 46      -0.001566910977
 47       0.179385173836
 48       0.349956462955
 49       0.276116013941
 50      -0.022212132858
 51      -0.053868395021
 52       0.018002916147
 53       0.017437112204
 54       0.045058077273
 55      -0.015646194655
 56      -0.003967161609
 57      -0.001758460602
 58      -0.004879733896
 59      -0.005822202967
 60       0.005865299993
 61       0.179384617512
 62       0.349955350564
 63       0.276115237885
 64      -0.041311636033
 65       0.026856267760
 66      -0.035935471881
 67       0.033621667752
 68      -0.023346339116
 69       0.030060073771
 70       0.000078560549
 71       0.007342818321
 72      -0.004857081249
 73       0.002373375226
 74      -0.005272032445
 Sym=     1a
 Ene= -1.67066418595697E+00
 Spin= Alpha
 Occup= 2.000000
  1      -0.000000351912
  2      -0.000000698174
  3      -0.000000483731
  4      -0.001853918966
  5       0.007835715637
  6      -0.005235793362
  7       0.000149925162
  8      -0.000633738461
  9       0.000423521283
 10      -0.000648932353
 11      -0.000029067283
 12       0.000334877647
 13      -0.000301294552
 14      -0.000234995721
 15       0.000000041290
 16       0.000000254785
 17      -0.000000376515
 18      -0.000000025147
 19       0.012410732054
 20      -0.052453853103
 21       0.035048473355
 22       0.019169847638
 23      -0.081021186584
 24       0.054136520393
 25       0.006044475450
 26      -0.025546957690
 27       0.017069883553
 28      -0.012927595775
 29      -0.029082204838
 30      -0.000072428197
 31      -0.026188087166
 32       0.035588264302
 33      -0.000000090642
 34      -0.000000178320
 35      -0.000000133212
 36      -0.001853987453
 37       0.007835852001
 38      -0.005235708670
 39       0.000149955767
 40      -0.000633763294
 41       0.000423450614
 42       0.000572736908
 43      -0.000142307255
 44      -0.000335312334
 45       0.000146963064
 46       0.000444724940
 47       0.214640741520
 48       0.428760408400
 49       0.304887072639
 50      -0.023547958210
 51      -0.040973373930
 52       0.010269444086
 53       0.015677777995
 54       0.031001068161
 55      -0.008870771285
 56      -0.003384013430
 57      -0.001346022756
 58      -0.002974046927
 59      -0.003707336743
 60       0.005370245012
 61      -0.214641087018
 62      -0.428761080333
 63      -0.304887592382
 64       0.036859251489
 65      -0.015286675789
 66       0.027322329487
 67      -0.026140360508
 68       0.013218890033
 69      -0.020676049004
 70       0.000146361404
 71      -0.005937457250
 72       0.002955933171
 73      -0.002851319957
 74       0.003542612976
 Sym=     1a
 Ene= -1.59390901891989E+00
 Spin= Alpha
 Occup= 2.000000
  1      -0.211062641356
  2      -0.412061515502
  3      -0.330503381647
  4       0.020367727438
  5      -0.018980085846
  6      -0.035617881801
  7      -0.022228480676
  8       0.019980324535
  9       0.037773729792
 10      -0.004107419453
 11       0.005802063698
 12      -0.005377343821
 13      -0.000137281382
 14       0.003137369515
 15       0.000000596871
 16       0.000003699504
 17      -0.000005135704
 18      -0.000001632034
 19       0.028476162980
 20      -0.030235630881
 21      -0.055334312976
 22       0.045201378237
 23      -0.047994248303
 24      -0.087834408774
 25       0.004930133473
 26      -0.005234898097
 27      -0.009580376552
 28       0.004152804764
 29       0.007264522585
 30       0.004921242830
 31      -0.006347052446
 32       0.002784400805
 33       0.211040096370
 34       0.412016633140
 35       0.330470651134
 36       0.016808872408
 37      -0.020490686207
 38      -0.036618522028
 39      -0.017357820093
 40       0.022049665393
 41       0.039146095568
 42       0.004586050481
 43      -0.004964633656
 44       0.005944547475
 45      -0.000594302787
 46      -0.002816360152
 47       0.000005687260
 48       0.000011355313
 49       0.000008740000
 50      -0.006918770266
 51       0.007345240414
 52       0.013443796608
 53       0.003254022220
 54      -0.003453991374
 55      -0.006322651672
 56       0.000696202239
 57      -0.000792857775
 58      -0.001068026675
 59       0.001005052656
 60       0.000342532935
 61       0.000005981665
 62       0.000011938501
 63       0.000009192936
 64      -0.006918989698
 65       0.007346073931
 66       0.013443241482
 67       0.003254291679
 68      -0.003455015921
 69      -0.006321946992
 70      -0.001487599132
 71      -0.000590330011
 72       0.000130017442
 73       0.000203842298
 74      -0.000872674987
 Sym=     1a
 Ene= -1.57695191523851E+00
 Spin= Alpha
 Occup= 2.000000
  1       0.195053614264
  2       0.387750664835
  3       0.284333261084
  4      -0.020524216356
  5       0.013875587478
  6       0.028033859200
  7       0.011462549801
  8      -0.009978784290
  9      -0.018993172124
 10       0.002026238804
 11      -0.002866792005
 12       0.002635090112
 13       0.000057428087
 14      -0.001559042758
 15      -0.010421624639
 16      -0.064721747415
 17       0.090353107202
 18       0.030733972227
 19       0.016669206534
 20       0.007085770463
 21       0.004702075911
 22       0.026497667875
 23       0.011263660957
 24       0.007474496513
 25       0.004137941006
 26       0.001759084093
 27       0.001167417372
 28       0.028600339865
 29      -0.035954845518
 30       0.040498592118
 31       0.001037974853
 32      -0.018146376291
 33       0.195078242234
 34       0.387798693360
 35       0.284372024102
 36       0.009879239423
 37      -0.018405160948
 38      -0.031043549347
 39      -0.008517025308
 40       0.011234665239
 41       0.019829763184
 42       0.002268041859
 43      -0.002445599009
 44       0.002921712834
 45      -0.000311241040
 46      -0.001397720641
 47      -0.096972609556
 48      -0.193342418446
 49      -0.151645555563
 50       0.001137898026
 51       0.005657303907
 52      -0.002504188288
 53      -0.003786131488
 54      -0.010582152973
 55       0.003833004603
 56       0.000916852222
 57      -0.000001803268
 58       0.001343919000
 59       0.001162878530
 60      -0.001089715379
 61      -0.096972902541
 62      -0.193342998702
 63      -0.151646003826
 64       0.003361951090
 65      -0.003742513722
 66       0.003776539750
 67      -0.007643596133
 68       0.005721297180
 69      -0.007060598713
 70       0.000209288610
 71      -0.001593239074
 72       0.001340037948
 73      -0.000270243833
 74       0.000857675360
 Sym=     1a
 Ene= -1.06339933969274E+00
 Spin= Alpha
 Occup= 2.000000
  1      -0.072590323321
  2      -0.150341196764
  3      -0.131308012229
  4      -0.064111345977
  5       0.056521452178
  6       0.107292038916